SSRNA6: Martini 3 RNA; rigidly translated, coordinates in nm
   48
    1A      BB2    1   1.000   1.271   1.157
    1A      BB3    2   1.146   1.154   1.103
    1A      SC1    3   1.251   1.395   1.024
    1A      SC2    4   1.450   1.280   1.038
    1A      SC3    5   1.643   1.329   1.031
    1A      SC4    6   1.605   1.556   1.000
    1A      SC5    7   1.388   1.505   1.008
    2G      BB1    8   1.067   1.121   1.499
    2G      BB2    9   1.414   1.022   1.479
    2G      BB3   10   1.592   1.088   1.451
    2G      SC1   11   1.456   1.313   1.380
    2G      SC2   12   1.665   1.401   1.349
    2G      SC3   13   1.844   1.534   1.313
    2G      SC4   14   1.699   1.636   1.312
    2G      SC5   15   1.528   1.688   1.319
    2G      SC6   16   1.445   1.486   1.356
    3G      BB1   17   1.494   1.028   1.841
    3G      BB2   18   1.786   1.155   1.980
    3G      BB3   19   1.734   1.293   2.109
    3G      SC1   20   1.655   1.499   2.024
    3G      SC2   21   1.864   1.596   2.019
    3G      SC3   22   2.042   1.734   2.004
    3G      SC4   23   1.895   1.828   1.969
    3G      SC5   24   1.726   1.874   1.942
    3G      SC6   25   1.641   1.669   1.984
    4U      BB1   26   1.925   1.000   2.283
    4U      BB2   27   2.223   1.176   2.367
    4U      BB3   28   2.215   1.334   2.487
    4U      SC1   29   1.986   1.502   2.372
    4U      SC2   30   2.205   1.643   2.399
    4U      SC3   31   2.048   1.718   2.364
    4U      SC4   32   1.875   1.737   2.329
    5A      BB1   33   2.512   1.072   2.561
    5A      BB2   34   2.728   1.235   2.358
    5A      BB3   35   2.780   1.174   2.188
    5A      SC1   36   2.522   1.168   2.081
    5A      SC2   37   2.525   1.388   2.160
    5A      SC3   38   2.394   1.541   2.147
    5A      SC4   39   2.238   1.420   2.026
    5A      SC5   40   2.377   1.254   2.038
    6A      BB1   41   2.978   1.484   2.180
    6A      BB2   42   2.839   1.701   1.940
    6A      BB3   43   2.661   1.768   1.945
    6A      SC1   44   2.588   1.600   1.776
    6A      SC2   45   2.398   1.731   1.757
    6A      SC3   46   2.216   1.704   1.678
    6A      SC4   47   2.260   1.487   1.608
    6A      SC5   48   2.461   1.512   1.694
   3.97850   2.87400   3.56060
