; MARTINI (martini30rna) Coarse Grained topology file for "SSRNA6"
; Generated by nucleic_builder Phase 1.5.1
; Input: 3G9Y-chain-C-alt-A.pdb
; Input SHA-256: 20c3c7ff17b6076f0f9ec6e9905d441ba05e49ffbb6080b050ab9755098fde59
; Upstream: https://github.com/DanYev/Martini-3-DNA-RNA
; Upstream commit: e761b7349fdf61dd485053c000dbb642f24ff9d8
; License: GPL-3.0-only; see distribution LICENSE and nucleic_builder/_vendor/martini_3_dna_rna/NOTICE.md
; Elastic network policy: off
; Elastic bonds: 0; cross-chain elastic bonds: 0
; Chain mapping: C: input 1-6 => residues 1-6
; ####################################################################################################
; Sequence:
; AGGUAA
; Secondary Structure:
; FFFFFF

[ moleculetype ]
; Name         Exclusions
SSRNA6            1

[ atoms ]
    1    N1     1     A   BB2     1  0.0000 60.0000
    2    N3     1     A   BB3     1  0.0000 60.0000
    3   TA0     1     A   SC1     2  0.0000 45.0000
    4   TA1     1     A   SC2     2  0.0000  0.0000
    5   TA2     1     A   SC3     2  0.0000 45.0000
    6   TA3     1     A   SC4     2  0.0000 45.0000
    7   TA4     1     A   SC5     2  0.0000  0.0000
    8   Q1n     2     G   BB1     9 -1.0000 72.0000
    9    N1     2     G   BB2     9  0.0000 60.0000
   10    N3     2     G   BB3     9  0.0000 60.0000
   11   TG0     2     G   SC1    10  0.0000 50.0000
   12   TG1     2     G   SC2    10  0.0000  0.0000
   13   TG2     2     G   SC3    10  0.0000 50.0000
   14   TG3     2     G   SC4    10  0.0000  0.0000
   15   TG4     2     G   SC5    10  0.0000 50.0000
   16   TG5     2     G   SC6    10  0.0000  0.0000
   17   Q1n     3     G   BB1    18 -1.0000 72.0000
   18    N1     3     G   BB2    18  0.0000 60.0000
   19    N3     3     G   BB3    18  0.0000 60.0000
   20   TG0     3     G   SC1    19  0.0000 50.0000
   21   TG1     3     G   SC2    19  0.0000  0.0000
   22   TG2     3     G   SC3    19  0.0000 50.0000
   23   TG3     3     G   SC4    19  0.0000  0.0000
   24   TG4     3     G   SC5    19  0.0000 50.0000
   25   TG5     3     G   SC6    19  0.0000  0.0000
   26   Q1n     4     U   BB1    27 -1.0000 72.0000
   27    N1     4     U   BB2    27  0.0000 60.0000
   28    N3     4     U   BB3    27  0.0000 60.0000
   29   TU0     4     U   SC1    28  0.0000 37.0000
   30   TU1     4     U   SC2    28  0.0000 37.0000
   31   TU2     4     U   SC3    28  0.0000  0.0000
   32   TU3     4     U   SC4    28  0.0000 37.0000
   33   Q1n     5     A   BB1    34 -1.0000 72.0000
   34    N1     5     A   BB2    34  0.0000 60.0000
   35    N3     5     A   BB3    34  0.0000 60.0000
   36   TA0     5     A   SC1    35  0.0000 45.0000
   37   TA1     5     A   SC2    35  0.0000  0.0000
   38   TA2     5     A   SC3    35  0.0000 45.0000
   39   TA3     5     A   SC4    35  0.0000 45.0000
   40   TA4     5     A   SC5    35  0.0000  0.0000
   41   Q1n     6     A   BB1    42 -1.0000 72.0000
   42    N1     6     A   BB2    42  0.0000 60.0000
   43    N3     6     A   BB3    42  0.0000 60.0000
   44   TA0     6     A   SC1    43  0.0000 45.0000
   45   TA1     6     A   SC2    43  0.0000  0.0000
   46   TA2     6     A   SC3    43  0.0000 45.0000
   47   TA3     6     A   SC4    43  0.0000 45.0000
   48   TA4     6     A   SC5    43  0.0000  0.0000

[ bonds ]
    1       2    1    0.2380   18000.0000 ; BB2-BB3
    1       8    1    0.3750   12000.0000 ; BB2-BB1n
    2       8    1    0.4140   12000.0000 ; BB3-BB1n
    8       9    1    0.3510   18000.0000 ; BB1-BB2
    9      10    1    0.2380   18000.0000 ; BB2-BB3
    9      17    1    0.3750   12000.0000 ; BB2-BB1n
   10      17    1    0.4140   12000.0000 ; BB3-BB1n
   17      18    1    0.3510   18000.0000 ; BB1-BB2
   18      19    1    0.2380   18000.0000 ; BB2-BB3
   18      26    1    0.3750   12000.0000 ; BB2-BB1n
   19      26    1    0.4140   12000.0000 ; BB3-BB1n
   26      27    1    0.3510   18000.0000 ; BB1-BB2
   27      28    1    0.2380   18000.0000 ; BB2-BB3
   27      33    1    0.3750   12000.0000 ; BB2-BB1n
   28      33    1    0.4140   12000.0000 ; BB3-BB1n
   33      34    1    0.3510   18000.0000 ; BB1-BB2
   34      35    1    0.2380   18000.0000 ; BB2-BB3
   34      41    1    0.3750   12000.0000 ; BB2-BB1n
   35      41    1    0.4140   12000.0000 ; BB3-BB1n
   41      42    1    0.3510   18000.0000 ; BB1-BB2
   42      43    1    0.2380   18000.0000 ; BB2-BB3
    2       3    1    0.2920   15000.0000 ; BB3-SC1
    1       3    3    0.3520    4.5000   20.0000 ; BB2-SC1
    2       4    1    0.3280   12000.0000 ; BB3-SC2
   10      11    1    0.2900   15000.0000 ; BB3-SC1
    9      11    3    0.3500    4.4000   20.0000 ; BB2-SC1
   10      12    1    0.3400   12000.0000 ; BB3-SC2
   19      20    1    0.2900   15000.0000 ; BB3-SC1
   18      20    3    0.3500    4.4000   20.0000 ; BB2-SC1
   19      21    1    0.3400   12000.0000 ; BB3-SC2
   28      29    1    0.3250   15000.0000 ; BB3-SC1
   27      29    3    0.4160    4.5000   20.0000 ; BB2-SC1
   28      30    1    0.3240   12000.0000 ; BB3-SC2
   35      36    1    0.2920   15000.0000 ; BB3-SC1
   34      36    3    0.3520    4.5000   20.0000 ; BB2-SC1
   35      37    1    0.3280   12000.0000 ; BB3-SC2
   43      44    1    0.2920   15000.0000 ; BB3-SC1
   42      44    3    0.3520    4.5000   20.0000 ; BB2-SC1
   43      45    1    0.3280   12000.0000 ; BB3-SC2

[ angles ]
    1       8       9   10   123.0000   150.0000 ; BB2-BB1n-BB2n
    8       9      17   10   106.0000   50.0000 ; BB1-BB2-BB1n
    9      17      18   10   123.0000   150.0000 ; BB2-BB1n-BB2n
    8       9      10   10   142.0000   300.0000 ; BB1-BB2-BB3
   17      18      26   10   106.0000   50.0000 ; BB1-BB2-BB1n
   18      26      27   10   123.0000   150.0000 ; BB2-BB1n-BB2n
   17      18      19   10   142.0000   300.0000 ; BB1-BB2-BB3
   26      27      33   10   106.0000   50.0000 ; BB1-BB2-BB1n
   27      33      34   10   123.0000   150.0000 ; BB2-BB1n-BB2n
   26      27      28   10   142.0000   300.0000 ; BB1-BB2-BB3
   33      34      41   10   106.0000   50.0000 ; BB1-BB2-BB1n
   34      41      42   10   123.0000   150.0000 ; BB2-BB1n-BB2n
   33      34      35   10   142.0000   300.0000 ; BB1-BB2-BB3
   41      42      43   10   142.0000   300.0000 ; BB1-BB2-BB3
    2       1       8   10   72.0000   80.0000 ; BB3-BB2-BB1n
    1       2       3   10   81.0000   250.0000 ; BB2-BB3-SC1
    2       3       5   10   87.0000   300.0000 ; BB3-SC1-SC3
    2       3       6   10   128.0000   250.0000 ; BB3-SC1-SC4
   10       9      17   10   72.0000   80.0000 ; BB3-BB2-BB1n
    9      10      11   10   80.0000   250.0000 ; BB2-BB3-SC1
   10      11      13   10   76.0000   300.0000 ; BB3-SC1-SC3
   10      11      15   10   123.0000   250.0000 ; BB3-SC1-SC5
   19      18      26   10   72.0000   80.0000 ; BB3-BB2-BB1n
   18      19      20   10   80.0000   250.0000 ; BB2-BB3-SC1
   19      20      22   10   76.0000   300.0000 ; BB3-SC1-SC3
   19      20      24   10   123.0000   250.0000 ; BB3-SC1-SC5
   28      27      33   10   72.0000   80.0000 ; BB3-BB2-BB1n
   27      28      29   10   92.0000   250.0000 ; BB2-BB3-SC1
   28      29      30   10   65.0000   400.0000 ; BB3-SC1-SC2
   28      29      32   10   143.0000   350.0000 ; BB3-SC1-SC4
   35      34      41   10   72.0000   80.0000 ; BB3-BB2-BB1n
   34      35      36   10   81.0000   250.0000 ; BB2-BB3-SC1
   35      36      38   10   87.0000   300.0000 ; BB3-SC1-SC3
   35      36      39   10   128.0000   250.0000 ; BB3-SC1-SC4
   42      43      44   10   81.0000   250.0000 ; BB2-BB3-SC1
   43      44      46   10   87.0000   300.0000 ; BB3-SC1-SC3
   43      44      47   10   128.0000   250.0000 ; BB3-SC1-SC4

[ dihedrals ]
    8       9      17      18    3   13.0000   -7.0000   -25.0000   -6.0000   25.0000    2.0000 ; BB1-BB2-BB1n-BB2n
    1       8       9      17    1    0.0000    7.0000    1.0000 ; BB2p-BB1-BB2-BB1n
    1       8       9      10    1   -105.0000   10.0000    1.0000 ; BB2p-BB1-BB2-BB3
   17      18      26      27    3   13.0000   -7.0000   -25.0000   -6.0000   25.0000    2.0000 ; BB1-BB2-BB1n-BB2n
    9      17      18      26    1    0.0000    7.0000    1.0000 ; BB2p-BB1-BB2-BB1n
    9      17      18      19    1   -105.0000   10.0000    1.0000 ; BB2p-BB1-BB2-BB3
   26      27      33      34    3   13.0000   -7.0000   -25.0000   -6.0000   25.0000    2.0000 ; BB1-BB2-BB1n-BB2n
   18      26      27      33    1    0.0000    7.0000    1.0000 ; BB2p-BB1-BB2-BB1n
   18      26      27      28    1   -105.0000   10.0000    1.0000 ; BB2p-BB1-BB2-BB3
   33      34      41      42    3   13.0000   -7.0000   -25.0000   -6.0000   25.0000    2.0000 ; BB1-BB2-BB1n-BB2n
   27      33      34      41    1    0.0000    7.0000    1.0000 ; BB2p-BB1-BB2-BB1n
   27      33      34      35    1   -105.0000   10.0000    1.0000 ; BB2p-BB1-BB2-BB3
   34      41      42      43    1   -105.0000   10.0000    1.0000 ; BB2p-BB1-BB2-BB3
    2       1       8       9    1   170.0000    2.5000    1.0000 ; BB3-BB2-BB1n-BB2n
    3       2       1       8    1   24.0000   11.0000    5.0000 ; SC1-BB3-BB2-BB1n
    8       1       2       3    1   70.0000   25.0000    1.0000 ; SC1-BB3-BB2-BB1n
    1       2       3       5    1    6.0000   40.0000    1.0000 ; BB2-BB3-SC1-SC3
    1       2       3       6    1   -10.0000   30.0000    1.0000 ; BB2-BB3-SC1-SC4
    2       3       5       6    1   16.0000   90.0000    1.0000 ; BB3-SC1-SC3-SC4
    2       3       6       5    1   196.0000   90.0000    1.0000 ; BB3-SC1-SC4-SC3
   10       9      17      18    1   170.0000    2.5000    1.0000 ; BB3-BB2-BB1n-BB2n
   11      10       9      17    1   24.0000   11.0000    5.0000 ; SC1-BB3-BB2-BB1n
   17       9      10      11    1   70.0000   25.0000    1.0000 ; SC1-BB3-BB2-BB1n
    8       9      10      11    1   190.0000   35.0000    1.0000 ; BB1-BB2-BB3-SC1
    9      10      11      13    1   12.0000   40.0000    1.0000 ; BB2-BB3-SC1-SC3
    9      10      11      15    1    0.0000   40.0000    1.0000 ; BB2-BB3-SC1-SC5
   10      11      13      15    1   12.0000   90.0000    1.0000 ; BB3-SC1-SC3-SC5
   10      11      15      13    1   192.0000   90.0000    1.0000 ; BB3-SC1-SC5-SC3
   19      18      26      27    1   170.0000    2.5000    1.0000 ; BB3-BB2-BB1n-BB2n
   20      19      18      26    1   24.0000   11.0000    5.0000 ; SC1-BB3-BB2-BB1n
   26      18      19      20    1   70.0000   25.0000    1.0000 ; SC1-BB3-BB2-BB1n
   17      18      19      20    1   190.0000   35.0000    1.0000 ; BB1-BB2-BB3-SC1
   18      19      20      22    1   12.0000   40.0000    1.0000 ; BB2-BB3-SC1-SC3
   18      19      20      24    1    0.0000   40.0000    1.0000 ; BB2-BB3-SC1-SC5
   19      20      22      24    1   12.0000   90.0000    1.0000 ; BB3-SC1-SC3-SC5
   19      20      24      22    1   192.0000   90.0000    1.0000 ; BB3-SC1-SC5-SC3
   28      27      33      34    1   170.0000    2.5000    1.0000 ; BB3-BB2-BB1n-BB2n
   29      28      27      33    1   25.0000   12.0000    5.0000 ; SC1-BB3-BB2-BB1n
   33      27      28      29    1   75.0000   30.0000    1.0000 ; SC1-BB3-BB2-BB1n
   26      27      28      29    1   180.0000   35.0000    1.0000 ; BB1-BB2-BB3-SC1
   27      28      29      30    1    5.0000   60.0000    1.0000 ; BB2-BB3-SC1-SC2
   27      28      29      32    1   -6.0000   50.0000    1.0000 ; BB2-BB3-SC1-SC4
   28      29      30      32    1   15.0000   100.0000    1.0000 ; BB3-SC1-SC2-SC4
   28      29      32      30    1   196.0000   100.0000    1.0000 ; BB3-SC1-SC4-SC2
   35      34      41      42    1   170.0000    2.5000    1.0000 ; BB3-BB2-BB1n-BB2n
   36      35      34      41    1   24.0000   11.0000    5.0000 ; SC1-BB3-BB2-BB1n
   41      34      35      36    1   70.0000   25.0000    1.0000 ; SC1-BB3-BB2-BB1n
   33      34      35      36    1   184.0000   35.0000    1.0000 ; BB1-BB2-BB3-SC1
   34      35      36      38    1    6.0000   40.0000    1.0000 ; BB2-BB3-SC1-SC3
   34      35      36      39    1   -10.0000   30.0000    1.0000 ; BB2-BB3-SC1-SC4
   35      36      38      39    1   16.0000   90.0000    1.0000 ; BB3-SC1-SC3-SC4
   35      36      39      38    1   196.0000   90.0000    1.0000 ; BB3-SC1-SC4-SC3
   41      42      43      44    1   184.0000   35.0000    1.0000 ; BB1-BB2-BB3-SC1
   42      43      44      46    1    6.0000   40.0000    1.0000 ; BB2-BB3-SC1-SC3
   42      43      44      47    1   -10.0000   30.0000    1.0000 ; BB2-BB3-SC1-SC4
   43      44      46      47    1   16.0000   90.0000    1.0000 ; BB3-SC1-SC3-SC4
   43      44      47      46    1   196.0000   90.0000    1.0000 ; BB3-SC1-SC4-SC3

[ constraints ]
    3       5    1    0.4700 ; SC1-SC3
    5       6    1    0.3300 ; SC3-SC4
    6       3    1    0.4560 ; SC4-SC1
   11      13    1    0.5550 ; SC1-SC3
   13      15    1    0.3980 ; SC3-SC5
   15      11    1    0.4160 ; SC5-SC1
   20      22    1    0.5550 ; SC1-SC3
   22      24    1    0.3980 ; SC3-SC5
   24      20    1    0.4160 ; SC5-SC1
   29      30    1    0.2600 ; SC1-SC2
   30      32    1    0.3490 ; SC2-SC4
   32      29    1    0.2600 ; SC4-SC1
   36      38    1    0.4700 ; SC1-SC3
   38      39    1    0.3300 ; SC3-SC4
   39      36    1    0.4560 ; SC4-SC1
   44      46    1    0.4700 ; SC1-SC3
   46      47    1    0.3300 ; SC3-SC4
   47      44    1    0.4560 ; SC4-SC1

[ exclusions ]
    2       8       ; BB3-BB1n
    8      10       ; BB1-BB3
   10      17       ; BB3-BB1n
   17      19       ; BB1-BB3
   19      26       ; BB3-BB1n
   26      28       ; BB1-BB3
   28      33       ; BB3-BB1n
   33      35       ; BB1-BB3
   35      41       ; BB3-BB1n
   41      43       ; BB1-BB3
    1       3      
    2       4      
    3       4       5       6       7      
    4       5       6       7      
    5       6       7      
    6       7      
    9      11      
   10      12      
   11      12      13      14      15      16      
   12      13      14      15      16      
   13      14      15      16      
   14      15      16      
   15      16      
   18      20      
   19      21      
   20      21      22      23      24      25      
   21      22      23      24      25      
   22      23      24      25      
   23      24      25      
   24      25      
   27      29      
   28      30      
   29      30      31      32      
   30      31      32      
   31      32      
   34      36      
   35      37      
   36      37      38      39      40      
   37      38      39      40      
   38      39      40      
   39      40      
   42      44      
   43      45      
   44      45      46      47      48      
   45      46      47      48      
   46      47      48      
   47      48      

[ virtual_sites3 ]
    4       3       5       6    3   -11.0000    0.2660 ; SC2
    7       3       6       5    3    0.0000    0.1800 ; SC5
   12      11      13      15    3   -4.0000    0.2800 ; SC2
   14      13      15      11    3    0.0000    0.2300 ; SC4
   16      11      15      13    3   -10.0000    0.2000 ; SC6
   21      20      22      24    3   -4.0000    0.2800 ; SC2
   23      22      24      20    3    0.0000    0.2300 ; SC4
   25      20      24      22    3   -10.0000    0.2000 ; SC6
   31      29      30      32    2    0.5000    0.2300 ; SC3
   37      36      38      39    3   -11.0000    0.2660 ; SC2
   40      36      39      38    3    0.0000    0.1800 ; SC5
   45      44      46      47    3   -11.0000    0.2660 ; SC2
   48      44      47      46    3    0.0000    0.1800 ; SC5

#ifdef POSRES
#define POSRES_FC 1000.00
 [ position_restraints ]
      1    1    POSRES_FC    POSRES_FC    POSRES_FC
      2    1    POSRES_FC    POSRES_FC    POSRES_FC
      3    1    POSRES_FC    POSRES_FC    POSRES_FC
      8    1    POSRES_FC    POSRES_FC    POSRES_FC
      9    1    POSRES_FC    POSRES_FC    POSRES_FC
     10    1    POSRES_FC    POSRES_FC    POSRES_FC
     11    1    POSRES_FC    POSRES_FC    POSRES_FC
     17    1    POSRES_FC    POSRES_FC    POSRES_FC
     18    1    POSRES_FC    POSRES_FC    POSRES_FC
     19    1    POSRES_FC    POSRES_FC    POSRES_FC
     20    1    POSRES_FC    POSRES_FC    POSRES_FC
     26    1    POSRES_FC    POSRES_FC    POSRES_FC
     27    1    POSRES_FC    POSRES_FC    POSRES_FC
     28    1    POSRES_FC    POSRES_FC    POSRES_FC
     29    1    POSRES_FC    POSRES_FC    POSRES_FC
     33    1    POSRES_FC    POSRES_FC    POSRES_FC
     34    1    POSRES_FC    POSRES_FC    POSRES_FC
     35    1    POSRES_FC    POSRES_FC    POSRES_FC
     36    1    POSRES_FC    POSRES_FC    POSRES_FC
     41    1    POSRES_FC    POSRES_FC    POSRES_FC
     42    1    POSRES_FC    POSRES_FC    POSRES_FC
     43    1    POSRES_FC    POSRES_FC    POSRES_FC
     44    1    POSRES_FC    POSRES_FC    POSRES_FC
#endif
