; MARTINI (martini30rna) Coarse Grained topology file for "RNA1"
; Generated by nucleic_builder Phase 1.5.1
; Input: 1RNA.pdb
; Input SHA-256: a6bbc4f9768643cb01a1b52cefdb3bc2138910c3eef8ae0c27e8f9fd1b4ce906
; Upstream: https://github.com/DanYev/Martini-3-DNA-RNA
; Upstream commit: e761b7349fdf61dd485053c000dbb642f24ff9d8
; License: GPL-3.0-only; see distribution LICENSE and nucleic_builder/_vendor/martini_3_dna_rna/NOTICE.md
; Elastic network policy: off
; Elastic bonds: 0; cross-chain elastic bonds: 0
; Chain mapping: A: input 1-14 => residues 1-14; B: input 15-28 => residues 15-28
; ####################################################################################################
; Sequence:
; UUAUAUAUAUAUAAUUAUAUAUAUAUAA
; Secondary Structure:
; FFFFFFFFFFFFFFFFFFFFFFFFFFFF

[ moleculetype ]
; Name         Exclusions
RNA1              1

[ atoms ]
    1    N1     1     U   BB2     1  0.0000 60.0000
    2    N3     1     U   BB3     1  0.0000 60.0000
    3   TU0     1     U   SC1     2  0.0000 37.0000
    4   TU1     1     U   SC2     2  0.0000 37.0000
    5   TU2     1     U   SC3     2  0.0000  0.0000
    6   TU3     1     U   SC4     2  0.0000 37.0000
    7   Q1n     2     U   BB1     8 -1.0000 72.0000
    8    N1     2     U   BB2     8  0.0000 60.0000
    9    N3     2     U   BB3     8  0.0000 60.0000
   10   TU0     2     U   SC1     9  0.0000 37.0000
   11   TU1     2     U   SC2     9  0.0000 37.0000
   12   TU2     2     U   SC3     9  0.0000  0.0000
   13   TU3     2     U   SC4     9  0.0000 37.0000
   14   Q1n     3     A   BB1    15 -1.0000 72.0000
   15    N1     3     A   BB2    15  0.0000 60.0000
   16    N3     3     A   BB3    15  0.0000 60.0000
   17   TA0     3     A   SC1    16  0.0000 45.0000
   18   TA1     3     A   SC2    16  0.0000  0.0000
   19   TA2     3     A   SC3    16  0.0000 45.0000
   20   TA3     3     A   SC4    16  0.0000 45.0000
   21   TA4     3     A   SC5    16  0.0000  0.0000
   22   Q1n     4     U   BB1    23 -1.0000 72.0000
   23    N1     4     U   BB2    23  0.0000 60.0000
   24    N3     4     U   BB3    23  0.0000 60.0000
   25   TU0     4     U   SC1    24  0.0000 37.0000
   26   TU1     4     U   SC2    24  0.0000 37.0000
   27   TU2     4     U   SC3    24  0.0000  0.0000
   28   TU3     4     U   SC4    24  0.0000 37.0000
   29   Q1n     5     A   BB1    30 -1.0000 72.0000
   30    N1     5     A   BB2    30  0.0000 60.0000
   31    N3     5     A   BB3    30  0.0000 60.0000
   32   TA0     5     A   SC1    31  0.0000 45.0000
   33   TA1     5     A   SC2    31  0.0000  0.0000
   34   TA2     5     A   SC3    31  0.0000 45.0000
   35   TA3     5     A   SC4    31  0.0000 45.0000
   36   TA4     5     A   SC5    31  0.0000  0.0000
   37   Q1n     6     U   BB1    38 -1.0000 72.0000
   38    N1     6     U   BB2    38  0.0000 60.0000
   39    N3     6     U   BB3    38  0.0000 60.0000
   40   TU0     6     U   SC1    39  0.0000 37.0000
   41   TU1     6     U   SC2    39  0.0000 37.0000
   42   TU2     6     U   SC3    39  0.0000  0.0000
   43   TU3     6     U   SC4    39  0.0000 37.0000
   44   Q1n     7     A   BB1    45 -1.0000 72.0000
   45    N1     7     A   BB2    45  0.0000 60.0000
   46    N3     7     A   BB3    45  0.0000 60.0000
   47   TA0     7     A   SC1    46  0.0000 45.0000
   48   TA1     7     A   SC2    46  0.0000  0.0000
   49   TA2     7     A   SC3    46  0.0000 45.0000
   50   TA3     7     A   SC4    46  0.0000 45.0000
   51   TA4     7     A   SC5    46  0.0000  0.0000
   52   Q1n     8     U   BB1    53 -1.0000 72.0000
   53    N1     8     U   BB2    53  0.0000 60.0000
   54    N3     8     U   BB3    53  0.0000 60.0000
   55   TU0     8     U   SC1    54  0.0000 37.0000
   56   TU1     8     U   SC2    54  0.0000 37.0000
   57   TU2     8     U   SC3    54  0.0000  0.0000
   58   TU3     8     U   SC4    54  0.0000 37.0000
   59   Q1n     9     A   BB1    60 -1.0000 72.0000
   60    N1     9     A   BB2    60  0.0000 60.0000
   61    N3     9     A   BB3    60  0.0000 60.0000
   62   TA0     9     A   SC1    61  0.0000 45.0000
   63   TA1     9     A   SC2    61  0.0000  0.0000
   64   TA2     9     A   SC3    61  0.0000 45.0000
   65   TA3     9     A   SC4    61  0.0000 45.0000
   66   TA4     9     A   SC5    61  0.0000  0.0000
   67   Q1n    10     U   BB1    68 -1.0000 72.0000
   68    N1    10     U   BB2    68  0.0000 60.0000
   69    N3    10     U   BB3    68  0.0000 60.0000
   70   TU0    10     U   SC1    69  0.0000 37.0000
   71   TU1    10     U   SC2    69  0.0000 37.0000
   72   TU2    10     U   SC3    69  0.0000  0.0000
   73   TU3    10     U   SC4    69  0.0000 37.0000
   74   Q1n    11     A   BB1    75 -1.0000 72.0000
   75    N1    11     A   BB2    75  0.0000 60.0000
   76    N3    11     A   BB3    75  0.0000 60.0000
   77   TA0    11     A   SC1    76  0.0000 45.0000
   78   TA1    11     A   SC2    76  0.0000  0.0000
   79   TA2    11     A   SC3    76  0.0000 45.0000
   80   TA3    11     A   SC4    76  0.0000 45.0000
   81   TA4    11     A   SC5    76  0.0000  0.0000
   82   Q1n    12     U   BB1    83 -1.0000 72.0000
   83    N1    12     U   BB2    83  0.0000 60.0000
   84    N3    12     U   BB3    83  0.0000 60.0000
   85   TU0    12     U   SC1    84  0.0000 37.0000
   86   TU1    12     U   SC2    84  0.0000 37.0000
   87   TU2    12     U   SC3    84  0.0000  0.0000
   88   TU3    12     U   SC4    84  0.0000 37.0000
   89   Q1n    13     A   BB1    90 -1.0000 72.0000
   90    N1    13     A   BB2    90  0.0000 60.0000
   91    N3    13     A   BB3    90  0.0000 60.0000
   92   TA0    13     A   SC1    91  0.0000 45.0000
   93   TA1    13     A   SC2    91  0.0000  0.0000
   94   TA2    13     A   SC3    91  0.0000 45.0000
   95   TA3    13     A   SC4    91  0.0000 45.0000
   96   TA4    13     A   SC5    91  0.0000  0.0000
   97   Q1n    14     A   BB1    98 -1.0000 72.0000
   98    N1    14     A   BB2    98  0.0000 60.0000
   99    N3    14     A   BB3    98  0.0000 60.0000
  100   TA0    14     A   SC1    99  0.0000 45.0000
  101   TA1    14     A   SC2    99  0.0000  0.0000
  102   TA2    14     A   SC3    99  0.0000 45.0000
  103   TA3    14     A   SC4    99  0.0000 45.0000
  104   TA4    14     A   SC5    99  0.0000  0.0000
  105    N1    15     U   BB2   105  0.0000 60.0000
  106    N3    15     U   BB3   105  0.0000 60.0000
  107   TU0    15     U   SC1   106  0.0000 37.0000
  108   TU1    15     U   SC2   106  0.0000 37.0000
  109   TU2    15     U   SC3   106  0.0000  0.0000
  110   TU3    15     U   SC4   106  0.0000 37.0000
  111   Q1n    16     U   BB1   112 -1.0000 72.0000
  112    N1    16     U   BB2   112  0.0000 60.0000
  113    N3    16     U   BB3   112  0.0000 60.0000
  114   TU0    16     U   SC1   113  0.0000 37.0000
  115   TU1    16     U   SC2   113  0.0000 37.0000
  116   TU2    16     U   SC3   113  0.0000  0.0000
  117   TU3    16     U   SC4   113  0.0000 37.0000
  118   Q1n    17     A   BB1   119 -1.0000 72.0000
  119    N1    17     A   BB2   119  0.0000 60.0000
  120    N3    17     A   BB3   119  0.0000 60.0000
  121   TA0    17     A   SC1   120  0.0000 45.0000
  122   TA1    17     A   SC2   120  0.0000  0.0000
  123   TA2    17     A   SC3   120  0.0000 45.0000
  124   TA3    17     A   SC4   120  0.0000 45.0000
  125   TA4    17     A   SC5   120  0.0000  0.0000
  126   Q1n    18     U   BB1   127 -1.0000 72.0000
  127    N1    18     U   BB2   127  0.0000 60.0000
  128    N3    18     U   BB3   127  0.0000 60.0000
  129   TU0    18     U   SC1   128  0.0000 37.0000
  130   TU1    18     U   SC2   128  0.0000 37.0000
  131   TU2    18     U   SC3   128  0.0000  0.0000
  132   TU3    18     U   SC4   128  0.0000 37.0000
  133   Q1n    19     A   BB1   134 -1.0000 72.0000
  134    N1    19     A   BB2   134  0.0000 60.0000
  135    N3    19     A   BB3   134  0.0000 60.0000
  136   TA0    19     A   SC1   135  0.0000 45.0000
  137   TA1    19     A   SC2   135  0.0000  0.0000
  138   TA2    19     A   SC3   135  0.0000 45.0000
  139   TA3    19     A   SC4   135  0.0000 45.0000
  140   TA4    19     A   SC5   135  0.0000  0.0000
  141   Q1n    20     U   BB1   142 -1.0000 72.0000
  142    N1    20     U   BB2   142  0.0000 60.0000
  143    N3    20     U   BB3   142  0.0000 60.0000
  144   TU0    20     U   SC1   143  0.0000 37.0000
  145   TU1    20     U   SC2   143  0.0000 37.0000
  146   TU2    20     U   SC3   143  0.0000  0.0000
  147   TU3    20     U   SC4   143  0.0000 37.0000
  148   Q1n    21     A   BB1   149 -1.0000 72.0000
  149    N1    21     A   BB2   149  0.0000 60.0000
  150    N3    21     A   BB3   149  0.0000 60.0000
  151   TA0    21     A   SC1   150  0.0000 45.0000
  152   TA1    21     A   SC2   150  0.0000  0.0000
  153   TA2    21     A   SC3   150  0.0000 45.0000
  154   TA3    21     A   SC4   150  0.0000 45.0000
  155   TA4    21     A   SC5   150  0.0000  0.0000
  156   Q1n    22     U   BB1   157 -1.0000 72.0000
  157    N1    22     U   BB2   157  0.0000 60.0000
  158    N3    22     U   BB3   157  0.0000 60.0000
  159   TU0    22     U   SC1   158  0.0000 37.0000
  160   TU1    22     U   SC2   158  0.0000 37.0000
  161   TU2    22     U   SC3   158  0.0000  0.0000
  162   TU3    22     U   SC4   158  0.0000 37.0000
  163   Q1n    23     A   BB1   164 -1.0000 72.0000
  164    N1    23     A   BB2   164  0.0000 60.0000
  165    N3    23     A   BB3   164  0.0000 60.0000
  166   TA0    23     A   SC1   165  0.0000 45.0000
  167   TA1    23     A   SC2   165  0.0000  0.0000
  168   TA2    23     A   SC3   165  0.0000 45.0000
  169   TA3    23     A   SC4   165  0.0000 45.0000
  170   TA4    23     A   SC5   165  0.0000  0.0000
  171   Q1n    24     U   BB1   172 -1.0000 72.0000
  172    N1    24     U   BB2   172  0.0000 60.0000
  173    N3    24     U   BB3   172  0.0000 60.0000
  174   TU0    24     U   SC1   173  0.0000 37.0000
  175   TU1    24     U   SC2   173  0.0000 37.0000
  176   TU2    24     U   SC3   173  0.0000  0.0000
  177   TU3    24     U   SC4   173  0.0000 37.0000
  178   Q1n    25     A   BB1   179 -1.0000 72.0000
  179    N1    25     A   BB2   179  0.0000 60.0000
  180    N3    25     A   BB3   179  0.0000 60.0000
  181   TA0    25     A   SC1   180  0.0000 45.0000
  182   TA1    25     A   SC2   180  0.0000  0.0000
  183   TA2    25     A   SC3   180  0.0000 45.0000
  184   TA3    25     A   SC4   180  0.0000 45.0000
  185   TA4    25     A   SC5   180  0.0000  0.0000
  186   Q1n    26     U   BB1   187 -1.0000 72.0000
  187    N1    26     U   BB2   187  0.0000 60.0000
  188    N3    26     U   BB3   187  0.0000 60.0000
  189   TU0    26     U   SC1   188  0.0000 37.0000
  190   TU1    26     U   SC2   188  0.0000 37.0000
  191   TU2    26     U   SC3   188  0.0000  0.0000
  192   TU3    26     U   SC4   188  0.0000 37.0000
  193   Q1n    27     A   BB1   194 -1.0000 72.0000
  194    N1    27     A   BB2   194  0.0000 60.0000
  195    N3    27     A   BB3   194  0.0000 60.0000
  196   TA0    27     A   SC1   195  0.0000 45.0000
  197   TA1    27     A   SC2   195  0.0000  0.0000
  198   TA2    27     A   SC3   195  0.0000 45.0000
  199   TA3    27     A   SC4   195  0.0000 45.0000
  200   TA4    27     A   SC5   195  0.0000  0.0000
  201   Q1n    28     A   BB1   202 -1.0000 72.0000
  202    N1    28     A   BB2   202  0.0000 60.0000
  203    N3    28     A   BB3   202  0.0000 60.0000
  204   TA0    28     A   SC1   203  0.0000 45.0000
  205   TA1    28     A   SC2   203  0.0000  0.0000
  206   TA2    28     A   SC3   203  0.0000 45.0000
  207   TA3    28     A   SC4   203  0.0000 45.0000
  208   TA4    28     A   SC5   203  0.0000  0.0000

[ bonds ]
    1       2    1    0.2380   18000.0000 ; BB2-BB3
    1       7    1    0.3750   12000.0000 ; BB2-BB1n
    2       7    1    0.4140   12000.0000 ; BB3-BB1n
    7       8    1    0.3510   18000.0000 ; BB1-BB2
    8       9    1    0.2380   18000.0000 ; BB2-BB3
    8      14    1    0.3750   12000.0000 ; BB2-BB1n
    9      14    1    0.4140   12000.0000 ; BB3-BB1n
   14      15    1    0.3510   18000.0000 ; BB1-BB2
   15      16    1    0.2380   18000.0000 ; BB2-BB3
   15      22    1    0.3750   12000.0000 ; BB2-BB1n
   16      22    1    0.4140   12000.0000 ; BB3-BB1n
   22      23    1    0.3510   18000.0000 ; BB1-BB2
   23      24    1    0.2380   18000.0000 ; BB2-BB3
   23      29    1    0.3750   12000.0000 ; BB2-BB1n
   24      29    1    0.4140   12000.0000 ; BB3-BB1n
   29      30    1    0.3510   18000.0000 ; BB1-BB2
   30      31    1    0.2380   18000.0000 ; BB2-BB3
   30      37    1    0.3750   12000.0000 ; BB2-BB1n
   31      37    1    0.4140   12000.0000 ; BB3-BB1n
   37      38    1    0.3510   18000.0000 ; BB1-BB2
   38      39    1    0.2380   18000.0000 ; BB2-BB3
   38      44    1    0.3750   12000.0000 ; BB2-BB1n
   39      44    1    0.4140   12000.0000 ; BB3-BB1n
   44      45    1    0.3510   18000.0000 ; BB1-BB2
   45      46    1    0.2380   18000.0000 ; BB2-BB3
   45      52    1    0.3750   12000.0000 ; BB2-BB1n
   46      52    1    0.4140   12000.0000 ; BB3-BB1n
   52      53    1    0.3510   18000.0000 ; BB1-BB2
   53      54    1    0.2380   18000.0000 ; BB2-BB3
   53      59    1    0.3750   12000.0000 ; BB2-BB1n
   54      59    1    0.4140   12000.0000 ; BB3-BB1n
   59      60    1    0.3510   18000.0000 ; BB1-BB2
   60      61    1    0.2380   18000.0000 ; BB2-BB3
   60      67    1    0.3750   12000.0000 ; BB2-BB1n
   61      67    1    0.4140   12000.0000 ; BB3-BB1n
   67      68    1    0.3510   18000.0000 ; BB1-BB2
   68      69    1    0.2380   18000.0000 ; BB2-BB3
   68      74    1    0.3750   12000.0000 ; BB2-BB1n
   69      74    1    0.4140   12000.0000 ; BB3-BB1n
   74      75    1    0.3510   18000.0000 ; BB1-BB2
   75      76    1    0.2380   18000.0000 ; BB2-BB3
   75      82    1    0.3750   12000.0000 ; BB2-BB1n
   76      82    1    0.4140   12000.0000 ; BB3-BB1n
   82      83    1    0.3510   18000.0000 ; BB1-BB2
   83      84    1    0.2380   18000.0000 ; BB2-BB3
   83      89    1    0.3750   12000.0000 ; BB2-BB1n
   84      89    1    0.4140   12000.0000 ; BB3-BB1n
   89      90    1    0.3510   18000.0000 ; BB1-BB2
   90      91    1    0.2380   18000.0000 ; BB2-BB3
   90      97    1    0.3750   12000.0000 ; BB2-BB1n
   91      97    1    0.4140   12000.0000 ; BB3-BB1n
   97      98    1    0.3510   18000.0000 ; BB1-BB2
   98      99    1    0.2380   18000.0000 ; BB2-BB3
    2       3    1    0.3250   15000.0000 ; BB3-SC1
    1       3    3    0.4160    4.5000   20.0000 ; BB2-SC1
    2       4    1    0.3240   12000.0000 ; BB3-SC2
    9      10    1    0.3250   15000.0000 ; BB3-SC1
    8      10    3    0.4160    4.5000   20.0000 ; BB2-SC1
    9      11    1    0.3240   12000.0000 ; BB3-SC2
   16      17    1    0.2920   15000.0000 ; BB3-SC1
   15      17    3    0.3520    4.5000   20.0000 ; BB2-SC1
   16      18    1    0.3280   12000.0000 ; BB3-SC2
   24      25    1    0.3250   15000.0000 ; BB3-SC1
   23      25    3    0.4160    4.5000   20.0000 ; BB2-SC1
   24      26    1    0.3240   12000.0000 ; BB3-SC2
   31      32    1    0.2920   15000.0000 ; BB3-SC1
   30      32    3    0.3520    4.5000   20.0000 ; BB2-SC1
   31      33    1    0.3280   12000.0000 ; BB3-SC2
   39      40    1    0.3250   15000.0000 ; BB3-SC1
   38      40    3    0.4160    4.5000   20.0000 ; BB2-SC1
   39      41    1    0.3240   12000.0000 ; BB3-SC2
   46      47    1    0.2920   15000.0000 ; BB3-SC1
   45      47    3    0.3520    4.5000   20.0000 ; BB2-SC1
   46      48    1    0.3280   12000.0000 ; BB3-SC2
   54      55    1    0.3250   15000.0000 ; BB3-SC1
   53      55    3    0.4160    4.5000   20.0000 ; BB2-SC1
   54      56    1    0.3240   12000.0000 ; BB3-SC2
   61      62    1    0.2920   15000.0000 ; BB3-SC1
   60      62    3    0.3520    4.5000   20.0000 ; BB2-SC1
   61      63    1    0.3280   12000.0000 ; BB3-SC2
   69      70    1    0.3250   15000.0000 ; BB3-SC1
   68      70    3    0.4160    4.5000   20.0000 ; BB2-SC1
   69      71    1    0.3240   12000.0000 ; BB3-SC2
   76      77    1    0.2920   15000.0000 ; BB3-SC1
   75      77    3    0.3520    4.5000   20.0000 ; BB2-SC1
   76      78    1    0.3280   12000.0000 ; BB3-SC2
   84      85    1    0.3250   15000.0000 ; BB3-SC1
   83      85    3    0.4160    4.5000   20.0000 ; BB2-SC1
   84      86    1    0.3240   12000.0000 ; BB3-SC2
   91      92    1    0.2920   15000.0000 ; BB3-SC1
   90      92    3    0.3520    4.5000   20.0000 ; BB2-SC1
   91      93    1    0.3280   12000.0000 ; BB3-SC2
   99     100    1    0.2920   15000.0000 ; BB3-SC1
   98     100    3    0.3520    4.5000   20.0000 ; BB2-SC1
   99     101    1    0.3280   12000.0000 ; BB3-SC2
  105     106    1    0.2380   18000.0000 ; BB2-BB3
  105     111    1    0.3750   12000.0000 ; BB2-BB1n
  106     111    1    0.4140   12000.0000 ; BB3-BB1n
  111     112    1    0.3510   18000.0000 ; BB1-BB2
  112     113    1    0.2380   18000.0000 ; BB2-BB3
  112     118    1    0.3750   12000.0000 ; BB2-BB1n
  113     118    1    0.4140   12000.0000 ; BB3-BB1n
  118     119    1    0.3510   18000.0000 ; BB1-BB2
  119     120    1    0.2380   18000.0000 ; BB2-BB3
  119     126    1    0.3750   12000.0000 ; BB2-BB1n
  120     126    1    0.4140   12000.0000 ; BB3-BB1n
  126     127    1    0.3510   18000.0000 ; BB1-BB2
  127     128    1    0.2380   18000.0000 ; BB2-BB3
  127     133    1    0.3750   12000.0000 ; BB2-BB1n
  128     133    1    0.4140   12000.0000 ; BB3-BB1n
  133     134    1    0.3510   18000.0000 ; BB1-BB2
  134     135    1    0.2380   18000.0000 ; BB2-BB3
  134     141    1    0.3750   12000.0000 ; BB2-BB1n
  135     141    1    0.4140   12000.0000 ; BB3-BB1n
  141     142    1    0.3510   18000.0000 ; BB1-BB2
  142     143    1    0.2380   18000.0000 ; BB2-BB3
  142     148    1    0.3750   12000.0000 ; BB2-BB1n
  143     148    1    0.4140   12000.0000 ; BB3-BB1n
  148     149    1    0.3510   18000.0000 ; BB1-BB2
  149     150    1    0.2380   18000.0000 ; BB2-BB3
  149     156    1    0.3750   12000.0000 ; BB2-BB1n
  150     156    1    0.4140   12000.0000 ; BB3-BB1n
  156     157    1    0.3510   18000.0000 ; BB1-BB2
  157     158    1    0.2380   18000.0000 ; BB2-BB3
  157     163    1    0.3750   12000.0000 ; BB2-BB1n
  158     163    1    0.4140   12000.0000 ; BB3-BB1n
  163     164    1    0.3510   18000.0000 ; BB1-BB2
  164     165    1    0.2380   18000.0000 ; BB2-BB3
  164     171    1    0.3750   12000.0000 ; BB2-BB1n
  165     171    1    0.4140   12000.0000 ; BB3-BB1n
  171     172    1    0.3510   18000.0000 ; BB1-BB2
  172     173    1    0.2380   18000.0000 ; BB2-BB3
  172     178    1    0.3750   12000.0000 ; BB2-BB1n
  173     178    1    0.4140   12000.0000 ; BB3-BB1n
  178     179    1    0.3510   18000.0000 ; BB1-BB2
  179     180    1    0.2380   18000.0000 ; BB2-BB3
  179     186    1    0.3750   12000.0000 ; BB2-BB1n
  180     186    1    0.4140   12000.0000 ; BB3-BB1n
  186     187    1    0.3510   18000.0000 ; BB1-BB2
  187     188    1    0.2380   18000.0000 ; BB2-BB3
  187     193    1    0.3750   12000.0000 ; BB2-BB1n
  188     193    1    0.4140   12000.0000 ; BB3-BB1n
  193     194    1    0.3510   18000.0000 ; BB1-BB2
  194     195    1    0.2380   18000.0000 ; BB2-BB3
  194     201    1    0.3750   12000.0000 ; BB2-BB1n
  195     201    1    0.4140   12000.0000 ; BB3-BB1n
  201     202    1    0.3510   18000.0000 ; BB1-BB2
  202     203    1    0.2380   18000.0000 ; BB2-BB3
  106     107    1    0.3250   15000.0000 ; BB3-SC1
  105     107    3    0.4160    4.5000   20.0000 ; BB2-SC1
  106     108    1    0.3240   12000.0000 ; BB3-SC2
  113     114    1    0.3250   15000.0000 ; BB3-SC1
  112     114    3    0.4160    4.5000   20.0000 ; BB2-SC1
  113     115    1    0.3240   12000.0000 ; BB3-SC2
  120     121    1    0.2920   15000.0000 ; BB3-SC1
  119     121    3    0.3520    4.5000   20.0000 ; BB2-SC1
  120     122    1    0.3280   12000.0000 ; BB3-SC2
  128     129    1    0.3250   15000.0000 ; BB3-SC1
  127     129    3    0.4160    4.5000   20.0000 ; BB2-SC1
  128     130    1    0.3240   12000.0000 ; BB3-SC2
  135     136    1    0.2920   15000.0000 ; BB3-SC1
  134     136    3    0.3520    4.5000   20.0000 ; BB2-SC1
  135     137    1    0.3280   12000.0000 ; BB3-SC2
  143     144    1    0.3250   15000.0000 ; BB3-SC1
  142     144    3    0.4160    4.5000   20.0000 ; BB2-SC1
  143     145    1    0.3240   12000.0000 ; BB3-SC2
  150     151    1    0.2920   15000.0000 ; BB3-SC1
  149     151    3    0.3520    4.5000   20.0000 ; BB2-SC1
  150     152    1    0.3280   12000.0000 ; BB3-SC2
  158     159    1    0.3250   15000.0000 ; BB3-SC1
  157     159    3    0.4160    4.5000   20.0000 ; BB2-SC1
  158     160    1    0.3240   12000.0000 ; BB3-SC2
  165     166    1    0.2920   15000.0000 ; BB3-SC1
  164     166    3    0.3520    4.5000   20.0000 ; BB2-SC1
  165     167    1    0.3280   12000.0000 ; BB3-SC2
  173     174    1    0.3250   15000.0000 ; BB3-SC1
  172     174    3    0.4160    4.5000   20.0000 ; BB2-SC1
  173     175    1    0.3240   12000.0000 ; BB3-SC2
  180     181    1    0.2920   15000.0000 ; BB3-SC1
  179     181    3    0.3520    4.5000   20.0000 ; BB2-SC1
  180     182    1    0.3280   12000.0000 ; BB3-SC2
  188     189    1    0.3250   15000.0000 ; BB3-SC1
  187     189    3    0.4160    4.5000   20.0000 ; BB2-SC1
  188     190    1    0.3240   12000.0000 ; BB3-SC2
  195     196    1    0.2920   15000.0000 ; BB3-SC1
  194     196    3    0.3520    4.5000   20.0000 ; BB2-SC1
  195     197    1    0.3280   12000.0000 ; BB3-SC2
  203     204    1    0.2920   15000.0000 ; BB3-SC1
  202     204    3    0.3520    4.5000   20.0000 ; BB2-SC1
  203     205    1    0.3280   12000.0000 ; BB3-SC2

[ angles ]
    1       7       8   10   123.0000   150.0000 ; BB2-BB1n-BB2n
    7       8      14   10   106.0000   50.0000 ; BB1-BB2-BB1n
    8      14      15   10   123.0000   150.0000 ; BB2-BB1n-BB2n
    7       8       9   10   142.0000   300.0000 ; BB1-BB2-BB3
   14      15      22   10   106.0000   50.0000 ; BB1-BB2-BB1n
   15      22      23   10   123.0000   150.0000 ; BB2-BB1n-BB2n
   14      15      16   10   142.0000   300.0000 ; BB1-BB2-BB3
   22      23      29   10   106.0000   50.0000 ; BB1-BB2-BB1n
   23      29      30   10   123.0000   150.0000 ; BB2-BB1n-BB2n
   22      23      24   10   142.0000   300.0000 ; BB1-BB2-BB3
   29      30      37   10   106.0000   50.0000 ; BB1-BB2-BB1n
   30      37      38   10   123.0000   150.0000 ; BB2-BB1n-BB2n
   29      30      31   10   142.0000   300.0000 ; BB1-BB2-BB3
   37      38      44   10   106.0000   50.0000 ; BB1-BB2-BB1n
   38      44      45   10   123.0000   150.0000 ; BB2-BB1n-BB2n
   37      38      39   10   142.0000   300.0000 ; BB1-BB2-BB3
   44      45      52   10   106.0000   50.0000 ; BB1-BB2-BB1n
   45      52      53   10   123.0000   150.0000 ; BB2-BB1n-BB2n
   44      45      46   10   142.0000   300.0000 ; BB1-BB2-BB3
   52      53      59   10   106.0000   50.0000 ; BB1-BB2-BB1n
   53      59      60   10   123.0000   150.0000 ; BB2-BB1n-BB2n
   52      53      54   10   142.0000   300.0000 ; BB1-BB2-BB3
   59      60      67   10   106.0000   50.0000 ; BB1-BB2-BB1n
   60      67      68   10   123.0000   150.0000 ; BB2-BB1n-BB2n
   59      60      61   10   142.0000   300.0000 ; BB1-BB2-BB3
   67      68      74   10   106.0000   50.0000 ; BB1-BB2-BB1n
   68      74      75   10   123.0000   150.0000 ; BB2-BB1n-BB2n
   67      68      69   10   142.0000   300.0000 ; BB1-BB2-BB3
   74      75      82   10   106.0000   50.0000 ; BB1-BB2-BB1n
   75      82      83   10   123.0000   150.0000 ; BB2-BB1n-BB2n
   74      75      76   10   142.0000   300.0000 ; BB1-BB2-BB3
   82      83      89   10   106.0000   50.0000 ; BB1-BB2-BB1n
   83      89      90   10   123.0000   150.0000 ; BB2-BB1n-BB2n
   82      83      84   10   142.0000   300.0000 ; BB1-BB2-BB3
   89      90      97   10   106.0000   50.0000 ; BB1-BB2-BB1n
   90      97      98   10   123.0000   150.0000 ; BB2-BB1n-BB2n
   89      90      91   10   142.0000   300.0000 ; BB1-BB2-BB3
   97      98      99   10   142.0000   300.0000 ; BB1-BB2-BB3
    2       1       7   10   72.0000   80.0000 ; BB3-BB2-BB1n
    1       2       3   10   92.0000   250.0000 ; BB2-BB3-SC1
    2       3       4   10   65.0000   400.0000 ; BB3-SC1-SC2
    2       3       6   10   143.0000   350.0000 ; BB3-SC1-SC4
    9       8      14   10   72.0000   80.0000 ; BB3-BB2-BB1n
    8       9      10   10   92.0000   250.0000 ; BB2-BB3-SC1
    9      10      11   10   65.0000   400.0000 ; BB3-SC1-SC2
    9      10      13   10   143.0000   350.0000 ; BB3-SC1-SC4
   16      15      22   10   72.0000   80.0000 ; BB3-BB2-BB1n
   15      16      17   10   81.0000   250.0000 ; BB2-BB3-SC1
   16      17      19   10   87.0000   300.0000 ; BB3-SC1-SC3
   16      17      20   10   128.0000   250.0000 ; BB3-SC1-SC4
   24      23      29   10   72.0000   80.0000 ; BB3-BB2-BB1n
   23      24      25   10   92.0000   250.0000 ; BB2-BB3-SC1
   24      25      26   10   65.0000   400.0000 ; BB3-SC1-SC2
   24      25      28   10   143.0000   350.0000 ; BB3-SC1-SC4
   31      30      37   10   72.0000   80.0000 ; BB3-BB2-BB1n
   30      31      32   10   81.0000   250.0000 ; BB2-BB3-SC1
   31      32      34   10   87.0000   300.0000 ; BB3-SC1-SC3
   31      32      35   10   128.0000   250.0000 ; BB3-SC1-SC4
   39      38      44   10   72.0000   80.0000 ; BB3-BB2-BB1n
   38      39      40   10   92.0000   250.0000 ; BB2-BB3-SC1
   39      40      41   10   65.0000   400.0000 ; BB3-SC1-SC2
   39      40      43   10   143.0000   350.0000 ; BB3-SC1-SC4
   46      45      52   10   72.0000   80.0000 ; BB3-BB2-BB1n
   45      46      47   10   81.0000   250.0000 ; BB2-BB3-SC1
   46      47      49   10   87.0000   300.0000 ; BB3-SC1-SC3
   46      47      50   10   128.0000   250.0000 ; BB3-SC1-SC4
   54      53      59   10   72.0000   80.0000 ; BB3-BB2-BB1n
   53      54      55   10   92.0000   250.0000 ; BB2-BB3-SC1
   54      55      56   10   65.0000   400.0000 ; BB3-SC1-SC2
   54      55      58   10   143.0000   350.0000 ; BB3-SC1-SC4
   61      60      67   10   72.0000   80.0000 ; BB3-BB2-BB1n
   60      61      62   10   81.0000   250.0000 ; BB2-BB3-SC1
   61      62      64   10   87.0000   300.0000 ; BB3-SC1-SC3
   61      62      65   10   128.0000   250.0000 ; BB3-SC1-SC4
   69      68      74   10   72.0000   80.0000 ; BB3-BB2-BB1n
   68      69      70   10   92.0000   250.0000 ; BB2-BB3-SC1
   69      70      71   10   65.0000   400.0000 ; BB3-SC1-SC2
   69      70      73   10   143.0000   350.0000 ; BB3-SC1-SC4
   76      75      82   10   72.0000   80.0000 ; BB3-BB2-BB1n
   75      76      77   10   81.0000   250.0000 ; BB2-BB3-SC1
   76      77      79   10   87.0000   300.0000 ; BB3-SC1-SC3
   76      77      80   10   128.0000   250.0000 ; BB3-SC1-SC4
   84      83      89   10   72.0000   80.0000 ; BB3-BB2-BB1n
   83      84      85   10   92.0000   250.0000 ; BB2-BB3-SC1
   84      85      86   10   65.0000   400.0000 ; BB3-SC1-SC2
   84      85      88   10   143.0000   350.0000 ; BB3-SC1-SC4
   91      90      97   10   72.0000   80.0000 ; BB3-BB2-BB1n
   90      91      92   10   81.0000   250.0000 ; BB2-BB3-SC1
   91      92      94   10   87.0000   300.0000 ; BB3-SC1-SC3
   91      92      95   10   128.0000   250.0000 ; BB3-SC1-SC4
   98      99     100   10   81.0000   250.0000 ; BB2-BB3-SC1
   99     100     102   10   87.0000   300.0000 ; BB3-SC1-SC3
   99     100     103   10   128.0000   250.0000 ; BB3-SC1-SC4
  105     111     112   10   123.0000   150.0000 ; BB2-BB1n-BB2n
  111     112     118   10   106.0000   50.0000 ; BB1-BB2-BB1n
  112     118     119   10   123.0000   150.0000 ; BB2-BB1n-BB2n
  111     112     113   10   142.0000   300.0000 ; BB1-BB2-BB3
  118     119     126   10   106.0000   50.0000 ; BB1-BB2-BB1n
  119     126     127   10   123.0000   150.0000 ; BB2-BB1n-BB2n
  118     119     120   10   142.0000   300.0000 ; BB1-BB2-BB3
  126     127     133   10   106.0000   50.0000 ; BB1-BB2-BB1n
  127     133     134   10   123.0000   150.0000 ; BB2-BB1n-BB2n
  126     127     128   10   142.0000   300.0000 ; BB1-BB2-BB3
  133     134     141   10   106.0000   50.0000 ; BB1-BB2-BB1n
  134     141     142   10   123.0000   150.0000 ; BB2-BB1n-BB2n
  133     134     135   10   142.0000   300.0000 ; BB1-BB2-BB3
  141     142     148   10   106.0000   50.0000 ; BB1-BB2-BB1n
  142     148     149   10   123.0000   150.0000 ; BB2-BB1n-BB2n
  141     142     143   10   142.0000   300.0000 ; BB1-BB2-BB3
  148     149     156   10   106.0000   50.0000 ; BB1-BB2-BB1n
  149     156     157   10   123.0000   150.0000 ; BB2-BB1n-BB2n
  148     149     150   10   142.0000   300.0000 ; BB1-BB2-BB3
  156     157     163   10   106.0000   50.0000 ; BB1-BB2-BB1n
  157     163     164   10   123.0000   150.0000 ; BB2-BB1n-BB2n
  156     157     158   10   142.0000   300.0000 ; BB1-BB2-BB3
  163     164     171   10   106.0000   50.0000 ; BB1-BB2-BB1n
  164     171     172   10   123.0000   150.0000 ; BB2-BB1n-BB2n
  163     164     165   10   142.0000   300.0000 ; BB1-BB2-BB3
  171     172     178   10   106.0000   50.0000 ; BB1-BB2-BB1n
  172     178     179   10   123.0000   150.0000 ; BB2-BB1n-BB2n
  171     172     173   10   142.0000   300.0000 ; BB1-BB2-BB3
  178     179     186   10   106.0000   50.0000 ; BB1-BB2-BB1n
  179     186     187   10   123.0000   150.0000 ; BB2-BB1n-BB2n
  178     179     180   10   142.0000   300.0000 ; BB1-BB2-BB3
  186     187     193   10   106.0000   50.0000 ; BB1-BB2-BB1n
  187     193     194   10   123.0000   150.0000 ; BB2-BB1n-BB2n
  186     187     188   10   142.0000   300.0000 ; BB1-BB2-BB3
  193     194     201   10   106.0000   50.0000 ; BB1-BB2-BB1n
  194     201     202   10   123.0000   150.0000 ; BB2-BB1n-BB2n
  193     194     195   10   142.0000   300.0000 ; BB1-BB2-BB3
  201     202     203   10   142.0000   300.0000 ; BB1-BB2-BB3
  106     105     111   10   72.0000   80.0000 ; BB3-BB2-BB1n
  105     106     107   10   92.0000   250.0000 ; BB2-BB3-SC1
  106     107     108   10   65.0000   400.0000 ; BB3-SC1-SC2
  106     107     110   10   143.0000   350.0000 ; BB3-SC1-SC4
  113     112     118   10   72.0000   80.0000 ; BB3-BB2-BB1n
  112     113     114   10   92.0000   250.0000 ; BB2-BB3-SC1
  113     114     115   10   65.0000   400.0000 ; BB3-SC1-SC2
  113     114     117   10   143.0000   350.0000 ; BB3-SC1-SC4
  120     119     126   10   72.0000   80.0000 ; BB3-BB2-BB1n
  119     120     121   10   81.0000   250.0000 ; BB2-BB3-SC1
  120     121     123   10   87.0000   300.0000 ; BB3-SC1-SC3
  120     121     124   10   128.0000   250.0000 ; BB3-SC1-SC4
  128     127     133   10   72.0000   80.0000 ; BB3-BB2-BB1n
  127     128     129   10   92.0000   250.0000 ; BB2-BB3-SC1
  128     129     130   10   65.0000   400.0000 ; BB3-SC1-SC2
  128     129     132   10   143.0000   350.0000 ; BB3-SC1-SC4
  135     134     141   10   72.0000   80.0000 ; BB3-BB2-BB1n
  134     135     136   10   81.0000   250.0000 ; BB2-BB3-SC1
  135     136     138   10   87.0000   300.0000 ; BB3-SC1-SC3
  135     136     139   10   128.0000   250.0000 ; BB3-SC1-SC4
  143     142     148   10   72.0000   80.0000 ; BB3-BB2-BB1n
  142     143     144   10   92.0000   250.0000 ; BB2-BB3-SC1
  143     144     145   10   65.0000   400.0000 ; BB3-SC1-SC2
  143     144     147   10   143.0000   350.0000 ; BB3-SC1-SC4
  150     149     156   10   72.0000   80.0000 ; BB3-BB2-BB1n
  149     150     151   10   81.0000   250.0000 ; BB2-BB3-SC1
  150     151     153   10   87.0000   300.0000 ; BB3-SC1-SC3
  150     151     154   10   128.0000   250.0000 ; BB3-SC1-SC4
  158     157     163   10   72.0000   80.0000 ; BB3-BB2-BB1n
  157     158     159   10   92.0000   250.0000 ; BB2-BB3-SC1
  158     159     160   10   65.0000   400.0000 ; BB3-SC1-SC2
  158     159     162   10   143.0000   350.0000 ; BB3-SC1-SC4
  165     164     171   10   72.0000   80.0000 ; BB3-BB2-BB1n
  164     165     166   10   81.0000   250.0000 ; BB2-BB3-SC1
  165     166     168   10   87.0000   300.0000 ; BB3-SC1-SC3
  165     166     169   10   128.0000   250.0000 ; BB3-SC1-SC4
  173     172     178   10   72.0000   80.0000 ; BB3-BB2-BB1n
  172     173     174   10   92.0000   250.0000 ; BB2-BB3-SC1
  173     174     175   10   65.0000   400.0000 ; BB3-SC1-SC2
  173     174     177   10   143.0000   350.0000 ; BB3-SC1-SC4
  180     179     186   10   72.0000   80.0000 ; BB3-BB2-BB1n
  179     180     181   10   81.0000   250.0000 ; BB2-BB3-SC1
  180     181     183   10   87.0000   300.0000 ; BB3-SC1-SC3
  180     181     184   10   128.0000   250.0000 ; BB3-SC1-SC4
  188     187     193   10   72.0000   80.0000 ; BB3-BB2-BB1n
  187     188     189   10   92.0000   250.0000 ; BB2-BB3-SC1
  188     189     190   10   65.0000   400.0000 ; BB3-SC1-SC2
  188     189     192   10   143.0000   350.0000 ; BB3-SC1-SC4
  195     194     201   10   72.0000   80.0000 ; BB3-BB2-BB1n
  194     195     196   10   81.0000   250.0000 ; BB2-BB3-SC1
  195     196     198   10   87.0000   300.0000 ; BB3-SC1-SC3
  195     196     199   10   128.0000   250.0000 ; BB3-SC1-SC4
  202     203     204   10   81.0000   250.0000 ; BB2-BB3-SC1
  203     204     206   10   87.0000   300.0000 ; BB3-SC1-SC3
  203     204     207   10   128.0000   250.0000 ; BB3-SC1-SC4

[ dihedrals ]
    7       8      14      15    3   13.0000   -7.0000   -25.0000   -6.0000   25.0000    2.0000 ; BB1-BB2-BB1n-BB2n
    1       7       8      14    1    0.0000    7.0000    1.0000 ; BB2p-BB1-BB2-BB1n
    1       7       8       9    1   -105.0000   10.0000    1.0000 ; BB2p-BB1-BB2-BB3
   14      15      22      23    3   13.0000   -7.0000   -25.0000   -6.0000   25.0000    2.0000 ; BB1-BB2-BB1n-BB2n
    8      14      15      22    1    0.0000    7.0000    1.0000 ; BB2p-BB1-BB2-BB1n
    8      14      15      16    1   -105.0000   10.0000    1.0000 ; BB2p-BB1-BB2-BB3
   22      23      29      30    3   13.0000   -7.0000   -25.0000   -6.0000   25.0000    2.0000 ; BB1-BB2-BB1n-BB2n
   15      22      23      29    1    0.0000    7.0000    1.0000 ; BB2p-BB1-BB2-BB1n
   15      22      23      24    1   -105.0000   10.0000    1.0000 ; BB2p-BB1-BB2-BB3
   29      30      37      38    3   13.0000   -7.0000   -25.0000   -6.0000   25.0000    2.0000 ; BB1-BB2-BB1n-BB2n
   23      29      30      37    1    0.0000    7.0000    1.0000 ; BB2p-BB1-BB2-BB1n
   23      29      30      31    1   -105.0000   10.0000    1.0000 ; BB2p-BB1-BB2-BB3
   37      38      44      45    3   13.0000   -7.0000   -25.0000   -6.0000   25.0000    2.0000 ; BB1-BB2-BB1n-BB2n
   30      37      38      44    1    0.0000    7.0000    1.0000 ; BB2p-BB1-BB2-BB1n
   30      37      38      39    1   -105.0000   10.0000    1.0000 ; BB2p-BB1-BB2-BB3
   44      45      52      53    3   13.0000   -7.0000   -25.0000   -6.0000   25.0000    2.0000 ; BB1-BB2-BB1n-BB2n
   38      44      45      52    1    0.0000    7.0000    1.0000 ; BB2p-BB1-BB2-BB1n
   38      44      45      46    1   -105.0000   10.0000    1.0000 ; BB2p-BB1-BB2-BB3
   52      53      59      60    3   13.0000   -7.0000   -25.0000   -6.0000   25.0000    2.0000 ; BB1-BB2-BB1n-BB2n
   45      52      53      59    1    0.0000    7.0000    1.0000 ; BB2p-BB1-BB2-BB1n
   45      52      53      54    1   -105.0000   10.0000    1.0000 ; BB2p-BB1-BB2-BB3
   59      60      67      68    3   13.0000   -7.0000   -25.0000   -6.0000   25.0000    2.0000 ; BB1-BB2-BB1n-BB2n
   53      59      60      67    1    0.0000    7.0000    1.0000 ; BB2p-BB1-BB2-BB1n
   53      59      60      61    1   -105.0000   10.0000    1.0000 ; BB2p-BB1-BB2-BB3
   67      68      74      75    3   13.0000   -7.0000   -25.0000   -6.0000   25.0000    2.0000 ; BB1-BB2-BB1n-BB2n
   60      67      68      74    1    0.0000    7.0000    1.0000 ; BB2p-BB1-BB2-BB1n
   60      67      68      69    1   -105.0000   10.0000    1.0000 ; BB2p-BB1-BB2-BB3
   74      75      82      83    3   13.0000   -7.0000   -25.0000   -6.0000   25.0000    2.0000 ; BB1-BB2-BB1n-BB2n
   68      74      75      82    1    0.0000    7.0000    1.0000 ; BB2p-BB1-BB2-BB1n
   68      74      75      76    1   -105.0000   10.0000    1.0000 ; BB2p-BB1-BB2-BB3
   82      83      89      90    3   13.0000   -7.0000   -25.0000   -6.0000   25.0000    2.0000 ; BB1-BB2-BB1n-BB2n
   75      82      83      89    1    0.0000    7.0000    1.0000 ; BB2p-BB1-BB2-BB1n
   75      82      83      84    1   -105.0000   10.0000    1.0000 ; BB2p-BB1-BB2-BB3
   89      90      97      98    3   13.0000   -7.0000   -25.0000   -6.0000   25.0000    2.0000 ; BB1-BB2-BB1n-BB2n
   83      89      90      97    1    0.0000    7.0000    1.0000 ; BB2p-BB1-BB2-BB1n
   83      89      90      91    1   -105.0000   10.0000    1.0000 ; BB2p-BB1-BB2-BB3
   90      97      98      99    1   -105.0000   10.0000    1.0000 ; BB2p-BB1-BB2-BB3
    2       1       7       8    1   170.0000    2.5000    1.0000 ; BB3-BB2-BB1n-BB2n
    3       2       1       7    1   25.0000   12.0000    5.0000 ; SC1-BB3-BB2-BB1n
    7       1       2       3    1   75.0000   30.0000    1.0000 ; SC1-BB3-BB2-BB1n
    1       2       3       4    1    5.0000   60.0000    1.0000 ; BB2-BB3-SC1-SC2
    1       2       3       6    1   -6.0000   50.0000    1.0000 ; BB2-BB3-SC1-SC4
    2       3       4       6    1   15.0000   100.0000    1.0000 ; BB3-SC1-SC2-SC4
    2       3       6       4    1   196.0000   100.0000    1.0000 ; BB3-SC1-SC4-SC2
    9       8      14      15    1   170.0000    2.5000    1.0000 ; BB3-BB2-BB1n-BB2n
   10       9       8      14    1   25.0000   12.0000    5.0000 ; SC1-BB3-BB2-BB1n
   14       8       9      10    1   75.0000   30.0000    1.0000 ; SC1-BB3-BB2-BB1n
    7       8       9      10    1   180.0000   35.0000    1.0000 ; BB1-BB2-BB3-SC1
    8       9      10      11    1    5.0000   60.0000    1.0000 ; BB2-BB3-SC1-SC2
    8       9      10      13    1   -6.0000   50.0000    1.0000 ; BB2-BB3-SC1-SC4
    9      10      11      13    1   15.0000   100.0000    1.0000 ; BB3-SC1-SC2-SC4
    9      10      13      11    1   196.0000   100.0000    1.0000 ; BB3-SC1-SC4-SC2
   16      15      22      23    1   170.0000    2.5000    1.0000 ; BB3-BB2-BB1n-BB2n
   17      16      15      22    1   24.0000   11.0000    5.0000 ; SC1-BB3-BB2-BB1n
   22      15      16      17    1   70.0000   25.0000    1.0000 ; SC1-BB3-BB2-BB1n
   14      15      16      17    1   184.0000   35.0000    1.0000 ; BB1-BB2-BB3-SC1
   15      16      17      19    1    6.0000   40.0000    1.0000 ; BB2-BB3-SC1-SC3
   15      16      17      20    1   -10.0000   30.0000    1.0000 ; BB2-BB3-SC1-SC4
   16      17      19      20    1   16.0000   90.0000    1.0000 ; BB3-SC1-SC3-SC4
   16      17      20      19    1   196.0000   90.0000    1.0000 ; BB3-SC1-SC4-SC3
   24      23      29      30    1   170.0000    2.5000    1.0000 ; BB3-BB2-BB1n-BB2n
   25      24      23      29    1   25.0000   12.0000    5.0000 ; SC1-BB3-BB2-BB1n
   29      23      24      25    1   75.0000   30.0000    1.0000 ; SC1-BB3-BB2-BB1n
   22      23      24      25    1   180.0000   35.0000    1.0000 ; BB1-BB2-BB3-SC1
   23      24      25      26    1    5.0000   60.0000    1.0000 ; BB2-BB3-SC1-SC2
   23      24      25      28    1   -6.0000   50.0000    1.0000 ; BB2-BB3-SC1-SC4
   24      25      26      28    1   15.0000   100.0000    1.0000 ; BB3-SC1-SC2-SC4
   24      25      28      26    1   196.0000   100.0000    1.0000 ; BB3-SC1-SC4-SC2
   31      30      37      38    1   170.0000    2.5000    1.0000 ; BB3-BB2-BB1n-BB2n
   32      31      30      37    1   24.0000   11.0000    5.0000 ; SC1-BB3-BB2-BB1n
   37      30      31      32    1   70.0000   25.0000    1.0000 ; SC1-BB3-BB2-BB1n
   29      30      31      32    1   184.0000   35.0000    1.0000 ; BB1-BB2-BB3-SC1
   30      31      32      34    1    6.0000   40.0000    1.0000 ; BB2-BB3-SC1-SC3
   30      31      32      35    1   -10.0000   30.0000    1.0000 ; BB2-BB3-SC1-SC4
   31      32      34      35    1   16.0000   90.0000    1.0000 ; BB3-SC1-SC3-SC4
   31      32      35      34    1   196.0000   90.0000    1.0000 ; BB3-SC1-SC4-SC3
   39      38      44      45    1   170.0000    2.5000    1.0000 ; BB3-BB2-BB1n-BB2n
   40      39      38      44    1   25.0000   12.0000    5.0000 ; SC1-BB3-BB2-BB1n
   44      38      39      40    1   75.0000   30.0000    1.0000 ; SC1-BB3-BB2-BB1n
   37      38      39      40    1   180.0000   35.0000    1.0000 ; BB1-BB2-BB3-SC1
   38      39      40      41    1    5.0000   60.0000    1.0000 ; BB2-BB3-SC1-SC2
   38      39      40      43    1   -6.0000   50.0000    1.0000 ; BB2-BB3-SC1-SC4
   39      40      41      43    1   15.0000   100.0000    1.0000 ; BB3-SC1-SC2-SC4
   39      40      43      41    1   196.0000   100.0000    1.0000 ; BB3-SC1-SC4-SC2
   46      45      52      53    1   170.0000    2.5000    1.0000 ; BB3-BB2-BB1n-BB2n
   47      46      45      52    1   24.0000   11.0000    5.0000 ; SC1-BB3-BB2-BB1n
   52      45      46      47    1   70.0000   25.0000    1.0000 ; SC1-BB3-BB2-BB1n
   44      45      46      47    1   184.0000   35.0000    1.0000 ; BB1-BB2-BB3-SC1
   45      46      47      49    1    6.0000   40.0000    1.0000 ; BB2-BB3-SC1-SC3
   45      46      47      50    1   -10.0000   30.0000    1.0000 ; BB2-BB3-SC1-SC4
   46      47      49      50    1   16.0000   90.0000    1.0000 ; BB3-SC1-SC3-SC4
   46      47      50      49    1   196.0000   90.0000    1.0000 ; BB3-SC1-SC4-SC3
   54      53      59      60    1   170.0000    2.5000    1.0000 ; BB3-BB2-BB1n-BB2n
   55      54      53      59    1   25.0000   12.0000    5.0000 ; SC1-BB3-BB2-BB1n
   59      53      54      55    1   75.0000   30.0000    1.0000 ; SC1-BB3-BB2-BB1n
   52      53      54      55    1   180.0000   35.0000    1.0000 ; BB1-BB2-BB3-SC1
   53      54      55      56    1    5.0000   60.0000    1.0000 ; BB2-BB3-SC1-SC2
   53      54      55      58    1   -6.0000   50.0000    1.0000 ; BB2-BB3-SC1-SC4
   54      55      56      58    1   15.0000   100.0000    1.0000 ; BB3-SC1-SC2-SC4
   54      55      58      56    1   196.0000   100.0000    1.0000 ; BB3-SC1-SC4-SC2
   61      60      67      68    1   170.0000    2.5000    1.0000 ; BB3-BB2-BB1n-BB2n
   62      61      60      67    1   24.0000   11.0000    5.0000 ; SC1-BB3-BB2-BB1n
   67      60      61      62    1   70.0000   25.0000    1.0000 ; SC1-BB3-BB2-BB1n
   59      60      61      62    1   184.0000   35.0000    1.0000 ; BB1-BB2-BB3-SC1
   60      61      62      64    1    6.0000   40.0000    1.0000 ; BB2-BB3-SC1-SC3
   60      61      62      65    1   -10.0000   30.0000    1.0000 ; BB2-BB3-SC1-SC4
   61      62      64      65    1   16.0000   90.0000    1.0000 ; BB3-SC1-SC3-SC4
   61      62      65      64    1   196.0000   90.0000    1.0000 ; BB3-SC1-SC4-SC3
   69      68      74      75    1   170.0000    2.5000    1.0000 ; BB3-BB2-BB1n-BB2n
   70      69      68      74    1   25.0000   12.0000    5.0000 ; SC1-BB3-BB2-BB1n
   74      68      69      70    1   75.0000   30.0000    1.0000 ; SC1-BB3-BB2-BB1n
   67      68      69      70    1   180.0000   35.0000    1.0000 ; BB1-BB2-BB3-SC1
   68      69      70      71    1    5.0000   60.0000    1.0000 ; BB2-BB3-SC1-SC2
   68      69      70      73    1   -6.0000   50.0000    1.0000 ; BB2-BB3-SC1-SC4
   69      70      71      73    1   15.0000   100.0000    1.0000 ; BB3-SC1-SC2-SC4
   69      70      73      71    1   196.0000   100.0000    1.0000 ; BB3-SC1-SC4-SC2
   76      75      82      83    1   170.0000    2.5000    1.0000 ; BB3-BB2-BB1n-BB2n
   77      76      75      82    1   24.0000   11.0000    5.0000 ; SC1-BB3-BB2-BB1n
   82      75      76      77    1   70.0000   25.0000    1.0000 ; SC1-BB3-BB2-BB1n
   74      75      76      77    1   184.0000   35.0000    1.0000 ; BB1-BB2-BB3-SC1
   75      76      77      79    1    6.0000   40.0000    1.0000 ; BB2-BB3-SC1-SC3
   75      76      77      80    1   -10.0000   30.0000    1.0000 ; BB2-BB3-SC1-SC4
   76      77      79      80    1   16.0000   90.0000    1.0000 ; BB3-SC1-SC3-SC4
   76      77      80      79    1   196.0000   90.0000    1.0000 ; BB3-SC1-SC4-SC3
   84      83      89      90    1   170.0000    2.5000    1.0000 ; BB3-BB2-BB1n-BB2n
   85      84      83      89    1   25.0000   12.0000    5.0000 ; SC1-BB3-BB2-BB1n
   89      83      84      85    1   75.0000   30.0000    1.0000 ; SC1-BB3-BB2-BB1n
   82      83      84      85    1   180.0000   35.0000    1.0000 ; BB1-BB2-BB3-SC1
   83      84      85      86    1    5.0000   60.0000    1.0000 ; BB2-BB3-SC1-SC2
   83      84      85      88    1   -6.0000   50.0000    1.0000 ; BB2-BB3-SC1-SC4
   84      85      86      88    1   15.0000   100.0000    1.0000 ; BB3-SC1-SC2-SC4
   84      85      88      86    1   196.0000   100.0000    1.0000 ; BB3-SC1-SC4-SC2
   91      90      97      98    1   170.0000    2.5000    1.0000 ; BB3-BB2-BB1n-BB2n
   92      91      90      97    1   24.0000   11.0000    5.0000 ; SC1-BB3-BB2-BB1n
   97      90      91      92    1   70.0000   25.0000    1.0000 ; SC1-BB3-BB2-BB1n
   89      90      91      92    1   184.0000   35.0000    1.0000 ; BB1-BB2-BB3-SC1
   90      91      92      94    1    6.0000   40.0000    1.0000 ; BB2-BB3-SC1-SC3
   90      91      92      95    1   -10.0000   30.0000    1.0000 ; BB2-BB3-SC1-SC4
   91      92      94      95    1   16.0000   90.0000    1.0000 ; BB3-SC1-SC3-SC4
   91      92      95      94    1   196.0000   90.0000    1.0000 ; BB3-SC1-SC4-SC3
   97      98      99     100    1   184.0000   35.0000    1.0000 ; BB1-BB2-BB3-SC1
   98      99     100     102    1    6.0000   40.0000    1.0000 ; BB2-BB3-SC1-SC3
   98      99     100     103    1   -10.0000   30.0000    1.0000 ; BB2-BB3-SC1-SC4
   99     100     102     103    1   16.0000   90.0000    1.0000 ; BB3-SC1-SC3-SC4
   99     100     103     102    1   196.0000   90.0000    1.0000 ; BB3-SC1-SC4-SC3
  111     112     118     119    3   13.0000   -7.0000   -25.0000   -6.0000   25.0000    2.0000 ; BB1-BB2-BB1n-BB2n
  105     111     112     118    1    0.0000    7.0000    1.0000 ; BB2p-BB1-BB2-BB1n
  105     111     112     113    1   -105.0000   10.0000    1.0000 ; BB2p-BB1-BB2-BB3
  118     119     126     127    3   13.0000   -7.0000   -25.0000   -6.0000   25.0000    2.0000 ; BB1-BB2-BB1n-BB2n
  112     118     119     126    1    0.0000    7.0000    1.0000 ; BB2p-BB1-BB2-BB1n
  112     118     119     120    1   -105.0000   10.0000    1.0000 ; BB2p-BB1-BB2-BB3
  126     127     133     134    3   13.0000   -7.0000   -25.0000   -6.0000   25.0000    2.0000 ; BB1-BB2-BB1n-BB2n
  119     126     127     133    1    0.0000    7.0000    1.0000 ; BB2p-BB1-BB2-BB1n
  119     126     127     128    1   -105.0000   10.0000    1.0000 ; BB2p-BB1-BB2-BB3
  133     134     141     142    3   13.0000   -7.0000   -25.0000   -6.0000   25.0000    2.0000 ; BB1-BB2-BB1n-BB2n
  127     133     134     141    1    0.0000    7.0000    1.0000 ; BB2p-BB1-BB2-BB1n
  127     133     134     135    1   -105.0000   10.0000    1.0000 ; BB2p-BB1-BB2-BB3
  141     142     148     149    3   13.0000   -7.0000   -25.0000   -6.0000   25.0000    2.0000 ; BB1-BB2-BB1n-BB2n
  134     141     142     148    1    0.0000    7.0000    1.0000 ; BB2p-BB1-BB2-BB1n
  134     141     142     143    1   -105.0000   10.0000    1.0000 ; BB2p-BB1-BB2-BB3
  148     149     156     157    3   13.0000   -7.0000   -25.0000   -6.0000   25.0000    2.0000 ; BB1-BB2-BB1n-BB2n
  142     148     149     156    1    0.0000    7.0000    1.0000 ; BB2p-BB1-BB2-BB1n
  142     148     149     150    1   -105.0000   10.0000    1.0000 ; BB2p-BB1-BB2-BB3
  156     157     163     164    3   13.0000   -7.0000   -25.0000   -6.0000   25.0000    2.0000 ; BB1-BB2-BB1n-BB2n
  149     156     157     163    1    0.0000    7.0000    1.0000 ; BB2p-BB1-BB2-BB1n
  149     156     157     158    1   -105.0000   10.0000    1.0000 ; BB2p-BB1-BB2-BB3
  163     164     171     172    3   13.0000   -7.0000   -25.0000   -6.0000   25.0000    2.0000 ; BB1-BB2-BB1n-BB2n
  157     163     164     171    1    0.0000    7.0000    1.0000 ; BB2p-BB1-BB2-BB1n
  157     163     164     165    1   -105.0000   10.0000    1.0000 ; BB2p-BB1-BB2-BB3
  171     172     178     179    3   13.0000   -7.0000   -25.0000   -6.0000   25.0000    2.0000 ; BB1-BB2-BB1n-BB2n
  164     171     172     178    1    0.0000    7.0000    1.0000 ; BB2p-BB1-BB2-BB1n
  164     171     172     173    1   -105.0000   10.0000    1.0000 ; BB2p-BB1-BB2-BB3
  178     179     186     187    3   13.0000   -7.0000   -25.0000   -6.0000   25.0000    2.0000 ; BB1-BB2-BB1n-BB2n
  172     178     179     186    1    0.0000    7.0000    1.0000 ; BB2p-BB1-BB2-BB1n
  172     178     179     180    1   -105.0000   10.0000    1.0000 ; BB2p-BB1-BB2-BB3
  186     187     193     194    3   13.0000   -7.0000   -25.0000   -6.0000   25.0000    2.0000 ; BB1-BB2-BB1n-BB2n
  179     186     187     193    1    0.0000    7.0000    1.0000 ; BB2p-BB1-BB2-BB1n
  179     186     187     188    1   -105.0000   10.0000    1.0000 ; BB2p-BB1-BB2-BB3
  193     194     201     202    3   13.0000   -7.0000   -25.0000   -6.0000   25.0000    2.0000 ; BB1-BB2-BB1n-BB2n
  187     193     194     201    1    0.0000    7.0000    1.0000 ; BB2p-BB1-BB2-BB1n
  187     193     194     195    1   -105.0000   10.0000    1.0000 ; BB2p-BB1-BB2-BB3
  194     201     202     203    1   -105.0000   10.0000    1.0000 ; BB2p-BB1-BB2-BB3
  106     105     111     112    1   170.0000    2.5000    1.0000 ; BB3-BB2-BB1n-BB2n
  107     106     105     111    1   25.0000   12.0000    5.0000 ; SC1-BB3-BB2-BB1n
  111     105     106     107    1   75.0000   30.0000    1.0000 ; SC1-BB3-BB2-BB1n
  105     106     107     108    1    5.0000   60.0000    1.0000 ; BB2-BB3-SC1-SC2
  105     106     107     110    1   -6.0000   50.0000    1.0000 ; BB2-BB3-SC1-SC4
  106     107     108     110    1   15.0000   100.0000    1.0000 ; BB3-SC1-SC2-SC4
  106     107     110     108    1   196.0000   100.0000    1.0000 ; BB3-SC1-SC4-SC2
  113     112     118     119    1   170.0000    2.5000    1.0000 ; BB3-BB2-BB1n-BB2n
  114     113     112     118    1   25.0000   12.0000    5.0000 ; SC1-BB3-BB2-BB1n
  118     112     113     114    1   75.0000   30.0000    1.0000 ; SC1-BB3-BB2-BB1n
  111     112     113     114    1   180.0000   35.0000    1.0000 ; BB1-BB2-BB3-SC1
  112     113     114     115    1    5.0000   60.0000    1.0000 ; BB2-BB3-SC1-SC2
  112     113     114     117    1   -6.0000   50.0000    1.0000 ; BB2-BB3-SC1-SC4
  113     114     115     117    1   15.0000   100.0000    1.0000 ; BB3-SC1-SC2-SC4
  113     114     117     115    1   196.0000   100.0000    1.0000 ; BB3-SC1-SC4-SC2
  120     119     126     127    1   170.0000    2.5000    1.0000 ; BB3-BB2-BB1n-BB2n
  121     120     119     126    1   24.0000   11.0000    5.0000 ; SC1-BB3-BB2-BB1n
  126     119     120     121    1   70.0000   25.0000    1.0000 ; SC1-BB3-BB2-BB1n
  118     119     120     121    1   184.0000   35.0000    1.0000 ; BB1-BB2-BB3-SC1
  119     120     121     123    1    6.0000   40.0000    1.0000 ; BB2-BB3-SC1-SC3
  119     120     121     124    1   -10.0000   30.0000    1.0000 ; BB2-BB3-SC1-SC4
  120     121     123     124    1   16.0000   90.0000    1.0000 ; BB3-SC1-SC3-SC4
  120     121     124     123    1   196.0000   90.0000    1.0000 ; BB3-SC1-SC4-SC3
  128     127     133     134    1   170.0000    2.5000    1.0000 ; BB3-BB2-BB1n-BB2n
  129     128     127     133    1   25.0000   12.0000    5.0000 ; SC1-BB3-BB2-BB1n
  133     127     128     129    1   75.0000   30.0000    1.0000 ; SC1-BB3-BB2-BB1n
  126     127     128     129    1   180.0000   35.0000    1.0000 ; BB1-BB2-BB3-SC1
  127     128     129     130    1    5.0000   60.0000    1.0000 ; BB2-BB3-SC1-SC2
  127     128     129     132    1   -6.0000   50.0000    1.0000 ; BB2-BB3-SC1-SC4
  128     129     130     132    1   15.0000   100.0000    1.0000 ; BB3-SC1-SC2-SC4
  128     129     132     130    1   196.0000   100.0000    1.0000 ; BB3-SC1-SC4-SC2
  135     134     141     142    1   170.0000    2.5000    1.0000 ; BB3-BB2-BB1n-BB2n
  136     135     134     141    1   24.0000   11.0000    5.0000 ; SC1-BB3-BB2-BB1n
  141     134     135     136    1   70.0000   25.0000    1.0000 ; SC1-BB3-BB2-BB1n
  133     134     135     136    1   184.0000   35.0000    1.0000 ; BB1-BB2-BB3-SC1
  134     135     136     138    1    6.0000   40.0000    1.0000 ; BB2-BB3-SC1-SC3
  134     135     136     139    1   -10.0000   30.0000    1.0000 ; BB2-BB3-SC1-SC4
  135     136     138     139    1   16.0000   90.0000    1.0000 ; BB3-SC1-SC3-SC4
  135     136     139     138    1   196.0000   90.0000    1.0000 ; BB3-SC1-SC4-SC3
  143     142     148     149    1   170.0000    2.5000    1.0000 ; BB3-BB2-BB1n-BB2n
  144     143     142     148    1   25.0000   12.0000    5.0000 ; SC1-BB3-BB2-BB1n
  148     142     143     144    1   75.0000   30.0000    1.0000 ; SC1-BB3-BB2-BB1n
  141     142     143     144    1   180.0000   35.0000    1.0000 ; BB1-BB2-BB3-SC1
  142     143     144     145    1    5.0000   60.0000    1.0000 ; BB2-BB3-SC1-SC2
  142     143     144     147    1   -6.0000   50.0000    1.0000 ; BB2-BB3-SC1-SC4
  143     144     145     147    1   15.0000   100.0000    1.0000 ; BB3-SC1-SC2-SC4
  143     144     147     145    1   196.0000   100.0000    1.0000 ; BB3-SC1-SC4-SC2
  150     149     156     157    1   170.0000    2.5000    1.0000 ; BB3-BB2-BB1n-BB2n
  151     150     149     156    1   24.0000   11.0000    5.0000 ; SC1-BB3-BB2-BB1n
  156     149     150     151    1   70.0000   25.0000    1.0000 ; SC1-BB3-BB2-BB1n
  148     149     150     151    1   184.0000   35.0000    1.0000 ; BB1-BB2-BB3-SC1
  149     150     151     153    1    6.0000   40.0000    1.0000 ; BB2-BB3-SC1-SC3
  149     150     151     154    1   -10.0000   30.0000    1.0000 ; BB2-BB3-SC1-SC4
  150     151     153     154    1   16.0000   90.0000    1.0000 ; BB3-SC1-SC3-SC4
  150     151     154     153    1   196.0000   90.0000    1.0000 ; BB3-SC1-SC4-SC3
  158     157     163     164    1   170.0000    2.5000    1.0000 ; BB3-BB2-BB1n-BB2n
  159     158     157     163    1   25.0000   12.0000    5.0000 ; SC1-BB3-BB2-BB1n
  163     157     158     159    1   75.0000   30.0000    1.0000 ; SC1-BB3-BB2-BB1n
  156     157     158     159    1   180.0000   35.0000    1.0000 ; BB1-BB2-BB3-SC1
  157     158     159     160    1    5.0000   60.0000    1.0000 ; BB2-BB3-SC1-SC2
  157     158     159     162    1   -6.0000   50.0000    1.0000 ; BB2-BB3-SC1-SC4
  158     159     160     162    1   15.0000   100.0000    1.0000 ; BB3-SC1-SC2-SC4
  158     159     162     160    1   196.0000   100.0000    1.0000 ; BB3-SC1-SC4-SC2
  165     164     171     172    1   170.0000    2.5000    1.0000 ; BB3-BB2-BB1n-BB2n
  166     165     164     171    1   24.0000   11.0000    5.0000 ; SC1-BB3-BB2-BB1n
  171     164     165     166    1   70.0000   25.0000    1.0000 ; SC1-BB3-BB2-BB1n
  163     164     165     166    1   184.0000   35.0000    1.0000 ; BB1-BB2-BB3-SC1
  164     165     166     168    1    6.0000   40.0000    1.0000 ; BB2-BB3-SC1-SC3
  164     165     166     169    1   -10.0000   30.0000    1.0000 ; BB2-BB3-SC1-SC4
  165     166     168     169    1   16.0000   90.0000    1.0000 ; BB3-SC1-SC3-SC4
  165     166     169     168    1   196.0000   90.0000    1.0000 ; BB3-SC1-SC4-SC3
  173     172     178     179    1   170.0000    2.5000    1.0000 ; BB3-BB2-BB1n-BB2n
  174     173     172     178    1   25.0000   12.0000    5.0000 ; SC1-BB3-BB2-BB1n
  178     172     173     174    1   75.0000   30.0000    1.0000 ; SC1-BB3-BB2-BB1n
  171     172     173     174    1   180.0000   35.0000    1.0000 ; BB1-BB2-BB3-SC1
  172     173     174     175    1    5.0000   60.0000    1.0000 ; BB2-BB3-SC1-SC2
  172     173     174     177    1   -6.0000   50.0000    1.0000 ; BB2-BB3-SC1-SC4
  173     174     175     177    1   15.0000   100.0000    1.0000 ; BB3-SC1-SC2-SC4
  173     174     177     175    1   196.0000   100.0000    1.0000 ; BB3-SC1-SC4-SC2
  180     179     186     187    1   170.0000    2.5000    1.0000 ; BB3-BB2-BB1n-BB2n
  181     180     179     186    1   24.0000   11.0000    5.0000 ; SC1-BB3-BB2-BB1n
  186     179     180     181    1   70.0000   25.0000    1.0000 ; SC1-BB3-BB2-BB1n
  178     179     180     181    1   184.0000   35.0000    1.0000 ; BB1-BB2-BB3-SC1
  179     180     181     183    1    6.0000   40.0000    1.0000 ; BB2-BB3-SC1-SC3
  179     180     181     184    1   -10.0000   30.0000    1.0000 ; BB2-BB3-SC1-SC4
  180     181     183     184    1   16.0000   90.0000    1.0000 ; BB3-SC1-SC3-SC4
  180     181     184     183    1   196.0000   90.0000    1.0000 ; BB3-SC1-SC4-SC3
  188     187     193     194    1   170.0000    2.5000    1.0000 ; BB3-BB2-BB1n-BB2n
  189     188     187     193    1   25.0000   12.0000    5.0000 ; SC1-BB3-BB2-BB1n
  193     187     188     189    1   75.0000   30.0000    1.0000 ; SC1-BB3-BB2-BB1n
  186     187     188     189    1   180.0000   35.0000    1.0000 ; BB1-BB2-BB3-SC1
  187     188     189     190    1    5.0000   60.0000    1.0000 ; BB2-BB3-SC1-SC2
  187     188     189     192    1   -6.0000   50.0000    1.0000 ; BB2-BB3-SC1-SC4
  188     189     190     192    1   15.0000   100.0000    1.0000 ; BB3-SC1-SC2-SC4
  188     189     192     190    1   196.0000   100.0000    1.0000 ; BB3-SC1-SC4-SC2
  195     194     201     202    1   170.0000    2.5000    1.0000 ; BB3-BB2-BB1n-BB2n
  196     195     194     201    1   24.0000   11.0000    5.0000 ; SC1-BB3-BB2-BB1n
  201     194     195     196    1   70.0000   25.0000    1.0000 ; SC1-BB3-BB2-BB1n
  193     194     195     196    1   184.0000   35.0000    1.0000 ; BB1-BB2-BB3-SC1
  194     195     196     198    1    6.0000   40.0000    1.0000 ; BB2-BB3-SC1-SC3
  194     195     196     199    1   -10.0000   30.0000    1.0000 ; BB2-BB3-SC1-SC4
  195     196     198     199    1   16.0000   90.0000    1.0000 ; BB3-SC1-SC3-SC4
  195     196     199     198    1   196.0000   90.0000    1.0000 ; BB3-SC1-SC4-SC3
  201     202     203     204    1   184.0000   35.0000    1.0000 ; BB1-BB2-BB3-SC1
  202     203     204     206    1    6.0000   40.0000    1.0000 ; BB2-BB3-SC1-SC3
  202     203     204     207    1   -10.0000   30.0000    1.0000 ; BB2-BB3-SC1-SC4
  203     204     206     207    1   16.0000   90.0000    1.0000 ; BB3-SC1-SC3-SC4
  203     204     207     206    1   196.0000   90.0000    1.0000 ; BB3-SC1-SC4-SC3

[ constraints ]
    3       4    1    0.2600 ; SC1-SC2
    4       6    1    0.3490 ; SC2-SC4
    6       3    1    0.2600 ; SC4-SC1
   10      11    1    0.2600 ; SC1-SC2
   11      13    1    0.3490 ; SC2-SC4
   13      10    1    0.2600 ; SC4-SC1
   17      19    1    0.4700 ; SC1-SC3
   19      20    1    0.3300 ; SC3-SC4
   20      17    1    0.4560 ; SC4-SC1
   25      26    1    0.2600 ; SC1-SC2
   26      28    1    0.3490 ; SC2-SC4
   28      25    1    0.2600 ; SC4-SC1
   32      34    1    0.4700 ; SC1-SC3
   34      35    1    0.3300 ; SC3-SC4
   35      32    1    0.4560 ; SC4-SC1
   40      41    1    0.2600 ; SC1-SC2
   41      43    1    0.3490 ; SC2-SC4
   43      40    1    0.2600 ; SC4-SC1
   47      49    1    0.4700 ; SC1-SC3
   49      50    1    0.3300 ; SC3-SC4
   50      47    1    0.4560 ; SC4-SC1
   55      56    1    0.2600 ; SC1-SC2
   56      58    1    0.3490 ; SC2-SC4
   58      55    1    0.2600 ; SC4-SC1
   62      64    1    0.4700 ; SC1-SC3
   64      65    1    0.3300 ; SC3-SC4
   65      62    1    0.4560 ; SC4-SC1
   70      71    1    0.2600 ; SC1-SC2
   71      73    1    0.3490 ; SC2-SC4
   73      70    1    0.2600 ; SC4-SC1
   77      79    1    0.4700 ; SC1-SC3
   79      80    1    0.3300 ; SC3-SC4
   80      77    1    0.4560 ; SC4-SC1
   85      86    1    0.2600 ; SC1-SC2
   86      88    1    0.3490 ; SC2-SC4
   88      85    1    0.2600 ; SC4-SC1
   92      94    1    0.4700 ; SC1-SC3
   94      95    1    0.3300 ; SC3-SC4
   95      92    1    0.4560 ; SC4-SC1
  100     102    1    0.4700 ; SC1-SC3
  102     103    1    0.3300 ; SC3-SC4
  103     100    1    0.4560 ; SC4-SC1
  107     108    1    0.2600 ; SC1-SC2
  108     110    1    0.3490 ; SC2-SC4
  110     107    1    0.2600 ; SC4-SC1
  114     115    1    0.2600 ; SC1-SC2
  115     117    1    0.3490 ; SC2-SC4
  117     114    1    0.2600 ; SC4-SC1
  121     123    1    0.4700 ; SC1-SC3
  123     124    1    0.3300 ; SC3-SC4
  124     121    1    0.4560 ; SC4-SC1
  129     130    1    0.2600 ; SC1-SC2
  130     132    1    0.3490 ; SC2-SC4
  132     129    1    0.2600 ; SC4-SC1
  136     138    1    0.4700 ; SC1-SC3
  138     139    1    0.3300 ; SC3-SC4
  139     136    1    0.4560 ; SC4-SC1
  144     145    1    0.2600 ; SC1-SC2
  145     147    1    0.3490 ; SC2-SC4
  147     144    1    0.2600 ; SC4-SC1
  151     153    1    0.4700 ; SC1-SC3
  153     154    1    0.3300 ; SC3-SC4
  154     151    1    0.4560 ; SC4-SC1
  159     160    1    0.2600 ; SC1-SC2
  160     162    1    0.3490 ; SC2-SC4
  162     159    1    0.2600 ; SC4-SC1
  166     168    1    0.4700 ; SC1-SC3
  168     169    1    0.3300 ; SC3-SC4
  169     166    1    0.4560 ; SC4-SC1
  174     175    1    0.2600 ; SC1-SC2
  175     177    1    0.3490 ; SC2-SC4
  177     174    1    0.2600 ; SC4-SC1
  181     183    1    0.4700 ; SC1-SC3
  183     184    1    0.3300 ; SC3-SC4
  184     181    1    0.4560 ; SC4-SC1
  189     190    1    0.2600 ; SC1-SC2
  190     192    1    0.3490 ; SC2-SC4
  192     189    1    0.2600 ; SC4-SC1
  196     198    1    0.4700 ; SC1-SC3
  198     199    1    0.3300 ; SC3-SC4
  199     196    1    0.4560 ; SC4-SC1
  204     206    1    0.4700 ; SC1-SC3
  206     207    1    0.3300 ; SC3-SC4
  207     204    1    0.4560 ; SC4-SC1

[ exclusions ]
    2       7       ; BB3-BB1n
    7       9       ; BB1-BB3
    9      14       ; BB3-BB1n
   14      16       ; BB1-BB3
   16      22       ; BB3-BB1n
   22      24       ; BB1-BB3
   24      29       ; BB3-BB1n
   29      31       ; BB1-BB3
   31      37       ; BB3-BB1n
   37      39       ; BB1-BB3
   39      44       ; BB3-BB1n
   44      46       ; BB1-BB3
   46      52       ; BB3-BB1n
   52      54       ; BB1-BB3
   54      59       ; BB3-BB1n
   59      61       ; BB1-BB3
   61      67       ; BB3-BB1n
   67      69       ; BB1-BB3
   69      74       ; BB3-BB1n
   74      76       ; BB1-BB3
   76      82       ; BB3-BB1n
   82      84       ; BB1-BB3
   84      89       ; BB3-BB1n
   89      91       ; BB1-BB3
   91      97       ; BB3-BB1n
   97      99       ; BB1-BB3
    1       3      
    2       4      
    3       4       5       6      
    4       5       6      
    5       6      
    8      10      
    9      11      
   10      11      12      13      
   11      12      13      
   12      13      
   15      17      
   16      18      
   17      18      19      20      21      
   18      19      20      21      
   19      20      21      
   20      21      
   23      25      
   24      26      
   25      26      27      28      
   26      27      28      
   27      28      
   30      32      
   31      33      
   32      33      34      35      36      
   33      34      35      36      
   34      35      36      
   35      36      
   38      40      
   39      41      
   40      41      42      43      
   41      42      43      
   42      43      
   45      47      
   46      48      
   47      48      49      50      51      
   48      49      50      51      
   49      50      51      
   50      51      
   53      55      
   54      56      
   55      56      57      58      
   56      57      58      
   57      58      
   60      62      
   61      63      
   62      63      64      65      66      
   63      64      65      66      
   64      65      66      
   65      66      
   68      70      
   69      71      
   70      71      72      73      
   71      72      73      
   72      73      
   75      77      
   76      78      
   77      78      79      80      81      
   78      79      80      81      
   79      80      81      
   80      81      
   83      85      
   84      86      
   85      86      87      88      
   86      87      88      
   87      88      
   90      92      
   91      93      
   92      93      94      95      96      
   93      94      95      96      
   94      95      96      
   95      96      
   98     100      
   99     101      
  100     101     102     103     104      
  101     102     103     104      
  102     103     104      
  103     104      
  106     111       ; BB3-BB1n
  111     113       ; BB1-BB3
  113     118       ; BB3-BB1n
  118     120       ; BB1-BB3
  120     126       ; BB3-BB1n
  126     128       ; BB1-BB3
  128     133       ; BB3-BB1n
  133     135       ; BB1-BB3
  135     141       ; BB3-BB1n
  141     143       ; BB1-BB3
  143     148       ; BB3-BB1n
  148     150       ; BB1-BB3
  150     156       ; BB3-BB1n
  156     158       ; BB1-BB3
  158     163       ; BB3-BB1n
  163     165       ; BB1-BB3
  165     171       ; BB3-BB1n
  171     173       ; BB1-BB3
  173     178       ; BB3-BB1n
  178     180       ; BB1-BB3
  180     186       ; BB3-BB1n
  186     188       ; BB1-BB3
  188     193       ; BB3-BB1n
  193     195       ; BB1-BB3
  195     201       ; BB3-BB1n
  201     203       ; BB1-BB3
  105     107      
  106     108      
  107     108     109     110      
  108     109     110      
  109     110      
  112     114      
  113     115      
  114     115     116     117      
  115     116     117      
  116     117      
  119     121      
  120     122      
  121     122     123     124     125      
  122     123     124     125      
  123     124     125      
  124     125      
  127     129      
  128     130      
  129     130     131     132      
  130     131     132      
  131     132      
  134     136      
  135     137      
  136     137     138     139     140      
  137     138     139     140      
  138     139     140      
  139     140      
  142     144      
  143     145      
  144     145     146     147      
  145     146     147      
  146     147      
  149     151      
  150     152      
  151     152     153     154     155      
  152     153     154     155      
  153     154     155      
  154     155      
  157     159      
  158     160      
  159     160     161     162      
  160     161     162      
  161     162      
  164     166      
  165     167      
  166     167     168     169     170      
  167     168     169     170      
  168     169     170      
  169     170      
  172     174      
  173     175      
  174     175     176     177      
  175     176     177      
  176     177      
  179     181      
  180     182      
  181     182     183     184     185      
  182     183     184     185      
  183     184     185      
  184     185      
  187     189      
  188     190      
  189     190     191     192      
  190     191     192      
  191     192      
  194     196      
  195     197      
  196     197     198     199     200      
  197     198     199     200      
  198     199     200      
  199     200      
  202     204      
  203     205      
  204     205     206     207     208      
  205     206     207     208      
  206     207     208      
  207     208      

[ virtual_sites3 ]
    5       3       4       6    2    0.5000    0.2300 ; SC3
   12      10      11      13    2    0.5000    0.2300 ; SC3
   18      17      19      20    3   -11.0000    0.2660 ; SC2
   21      17      20      19    3    0.0000    0.1800 ; SC5
   27      25      26      28    2    0.5000    0.2300 ; SC3
   33      32      34      35    3   -11.0000    0.2660 ; SC2
   36      32      35      34    3    0.0000    0.1800 ; SC5
   42      40      41      43    2    0.5000    0.2300 ; SC3
   48      47      49      50    3   -11.0000    0.2660 ; SC2
   51      47      50      49    3    0.0000    0.1800 ; SC5
   57      55      56      58    2    0.5000    0.2300 ; SC3
   63      62      64      65    3   -11.0000    0.2660 ; SC2
   66      62      65      64    3    0.0000    0.1800 ; SC5
   72      70      71      73    2    0.5000    0.2300 ; SC3
   78      77      79      80    3   -11.0000    0.2660 ; SC2
   81      77      80      79    3    0.0000    0.1800 ; SC5
   87      85      86      88    2    0.5000    0.2300 ; SC3
   93      92      94      95    3   -11.0000    0.2660 ; SC2
   96      92      95      94    3    0.0000    0.1800 ; SC5
  101     100     102     103    3   -11.0000    0.2660 ; SC2
  104     100     103     102    3    0.0000    0.1800 ; SC5
  109     107     108     110    2    0.5000    0.2300 ; SC3
  116     114     115     117    2    0.5000    0.2300 ; SC3
  122     121     123     124    3   -11.0000    0.2660 ; SC2
  125     121     124     123    3    0.0000    0.1800 ; SC5
  131     129     130     132    2    0.5000    0.2300 ; SC3
  137     136     138     139    3   -11.0000    0.2660 ; SC2
  140     136     139     138    3    0.0000    0.1800 ; SC5
  146     144     145     147    2    0.5000    0.2300 ; SC3
  152     151     153     154    3   -11.0000    0.2660 ; SC2
  155     151     154     153    3    0.0000    0.1800 ; SC5
  161     159     160     162    2    0.5000    0.2300 ; SC3
  167     166     168     169    3   -11.0000    0.2660 ; SC2
  170     166     169     168    3    0.0000    0.1800 ; SC5
  176     174     175     177    2    0.5000    0.2300 ; SC3
  182     181     183     184    3   -11.0000    0.2660 ; SC2
  185     181     184     183    3    0.0000    0.1800 ; SC5
  191     189     190     192    2    0.5000    0.2300 ; SC3
  197     196     198     199    3   -11.0000    0.2660 ; SC2
  200     196     199     198    3    0.0000    0.1800 ; SC5
  205     204     206     207    3   -11.0000    0.2660 ; SC2
  208     204     207     206    3    0.0000    0.1800 ; SC5

#ifdef POSRES
#define POSRES_FC 1000.00
 [ position_restraints ]
      1    1    POSRES_FC    POSRES_FC    POSRES_FC
      2    1    POSRES_FC    POSRES_FC    POSRES_FC
      3    1    POSRES_FC    POSRES_FC    POSRES_FC
      7    1    POSRES_FC    POSRES_FC    POSRES_FC
      8    1    POSRES_FC    POSRES_FC    POSRES_FC
      9    1    POSRES_FC    POSRES_FC    POSRES_FC
     10    1    POSRES_FC    POSRES_FC    POSRES_FC
     14    1    POSRES_FC    POSRES_FC    POSRES_FC
     15    1    POSRES_FC    POSRES_FC    POSRES_FC
     16    1    POSRES_FC    POSRES_FC    POSRES_FC
     17    1    POSRES_FC    POSRES_FC    POSRES_FC
     22    1    POSRES_FC    POSRES_FC    POSRES_FC
     23    1    POSRES_FC    POSRES_FC    POSRES_FC
     24    1    POSRES_FC    POSRES_FC    POSRES_FC
     25    1    POSRES_FC    POSRES_FC    POSRES_FC
     29    1    POSRES_FC    POSRES_FC    POSRES_FC
     30    1    POSRES_FC    POSRES_FC    POSRES_FC
     31    1    POSRES_FC    POSRES_FC    POSRES_FC
     32    1    POSRES_FC    POSRES_FC    POSRES_FC
     37    1    POSRES_FC    POSRES_FC    POSRES_FC
     38    1    POSRES_FC    POSRES_FC    POSRES_FC
     39    1    POSRES_FC    POSRES_FC    POSRES_FC
     40    1    POSRES_FC    POSRES_FC    POSRES_FC
     44    1    POSRES_FC    POSRES_FC    POSRES_FC
     45    1    POSRES_FC    POSRES_FC    POSRES_FC
     46    1    POSRES_FC    POSRES_FC    POSRES_FC
     47    1    POSRES_FC    POSRES_FC    POSRES_FC
     52    1    POSRES_FC    POSRES_FC    POSRES_FC
     53    1    POSRES_FC    POSRES_FC    POSRES_FC
     54    1    POSRES_FC    POSRES_FC    POSRES_FC
     55    1    POSRES_FC    POSRES_FC    POSRES_FC
     59    1    POSRES_FC    POSRES_FC    POSRES_FC
     60    1    POSRES_FC    POSRES_FC    POSRES_FC
     61    1    POSRES_FC    POSRES_FC    POSRES_FC
     62    1    POSRES_FC    POSRES_FC    POSRES_FC
     67    1    POSRES_FC    POSRES_FC    POSRES_FC
     68    1    POSRES_FC    POSRES_FC    POSRES_FC
     69    1    POSRES_FC    POSRES_FC    POSRES_FC
     70    1    POSRES_FC    POSRES_FC    POSRES_FC
     74    1    POSRES_FC    POSRES_FC    POSRES_FC
     75    1    POSRES_FC    POSRES_FC    POSRES_FC
     76    1    POSRES_FC    POSRES_FC    POSRES_FC
     77    1    POSRES_FC    POSRES_FC    POSRES_FC
     82    1    POSRES_FC    POSRES_FC    POSRES_FC
     83    1    POSRES_FC    POSRES_FC    POSRES_FC
     84    1    POSRES_FC    POSRES_FC    POSRES_FC
     85    1    POSRES_FC    POSRES_FC    POSRES_FC
     89    1    POSRES_FC    POSRES_FC    POSRES_FC
     90    1    POSRES_FC    POSRES_FC    POSRES_FC
     91    1    POSRES_FC    POSRES_FC    POSRES_FC
     92    1    POSRES_FC    POSRES_FC    POSRES_FC
     97    1    POSRES_FC    POSRES_FC    POSRES_FC
     98    1    POSRES_FC    POSRES_FC    POSRES_FC
     99    1    POSRES_FC    POSRES_FC    POSRES_FC
    100    1    POSRES_FC    POSRES_FC    POSRES_FC
    105    1    POSRES_FC    POSRES_FC    POSRES_FC
    106    1    POSRES_FC    POSRES_FC    POSRES_FC
    107    1    POSRES_FC    POSRES_FC    POSRES_FC
    111    1    POSRES_FC    POSRES_FC    POSRES_FC
    112    1    POSRES_FC    POSRES_FC    POSRES_FC
    113    1    POSRES_FC    POSRES_FC    POSRES_FC
    114    1    POSRES_FC    POSRES_FC    POSRES_FC
    118    1    POSRES_FC    POSRES_FC    POSRES_FC
    119    1    POSRES_FC    POSRES_FC    POSRES_FC
    120    1    POSRES_FC    POSRES_FC    POSRES_FC
    121    1    POSRES_FC    POSRES_FC    POSRES_FC
    126    1    POSRES_FC    POSRES_FC    POSRES_FC
    127    1    POSRES_FC    POSRES_FC    POSRES_FC
    128    1    POSRES_FC    POSRES_FC    POSRES_FC
    129    1    POSRES_FC    POSRES_FC    POSRES_FC
    133    1    POSRES_FC    POSRES_FC    POSRES_FC
    134    1    POSRES_FC    POSRES_FC    POSRES_FC
    135    1    POSRES_FC    POSRES_FC    POSRES_FC
    136    1    POSRES_FC    POSRES_FC    POSRES_FC
    141    1    POSRES_FC    POSRES_FC    POSRES_FC
    142    1    POSRES_FC    POSRES_FC    POSRES_FC
    143    1    POSRES_FC    POSRES_FC    POSRES_FC
    144    1    POSRES_FC    POSRES_FC    POSRES_FC
    148    1    POSRES_FC    POSRES_FC    POSRES_FC
    149    1    POSRES_FC    POSRES_FC    POSRES_FC
    150    1    POSRES_FC    POSRES_FC    POSRES_FC
    151    1    POSRES_FC    POSRES_FC    POSRES_FC
    156    1    POSRES_FC    POSRES_FC    POSRES_FC
    157    1    POSRES_FC    POSRES_FC    POSRES_FC
    158    1    POSRES_FC    POSRES_FC    POSRES_FC
    159    1    POSRES_FC    POSRES_FC    POSRES_FC
    163    1    POSRES_FC    POSRES_FC    POSRES_FC
    164    1    POSRES_FC    POSRES_FC    POSRES_FC
    165    1    POSRES_FC    POSRES_FC    POSRES_FC
    166    1    POSRES_FC    POSRES_FC    POSRES_FC
    171    1    POSRES_FC    POSRES_FC    POSRES_FC
    172    1    POSRES_FC    POSRES_FC    POSRES_FC
    173    1    POSRES_FC    POSRES_FC    POSRES_FC
    174    1    POSRES_FC    POSRES_FC    POSRES_FC
    178    1    POSRES_FC    POSRES_FC    POSRES_FC
    179    1    POSRES_FC    POSRES_FC    POSRES_FC
    180    1    POSRES_FC    POSRES_FC    POSRES_FC
    181    1    POSRES_FC    POSRES_FC    POSRES_FC
    186    1    POSRES_FC    POSRES_FC    POSRES_FC
    187    1    POSRES_FC    POSRES_FC    POSRES_FC
    188    1    POSRES_FC    POSRES_FC    POSRES_FC
    189    1    POSRES_FC    POSRES_FC    POSRES_FC
    193    1    POSRES_FC    POSRES_FC    POSRES_FC
    194    1    POSRES_FC    POSRES_FC    POSRES_FC
    195    1    POSRES_FC    POSRES_FC    POSRES_FC
    196    1    POSRES_FC    POSRES_FC    POSRES_FC
    201    1    POSRES_FC    POSRES_FC    POSRES_FC
    202    1    POSRES_FC    POSRES_FC    POSRES_FC
    203    1    POSRES_FC    POSRES_FC    POSRES_FC
    204    1    POSRES_FC    POSRES_FC    POSRES_FC
#endif
