RNA1: Martini 3 RNA; rigidly translated, coordinates in nm
  208
    1U      BB2    1   2.256   2.427   4.495
    1U      BB3    2   2.340   2.260   4.482
    1U      SC1    3   2.050   2.209   4.343
    1U      SC2    4   2.201   1.998   4.354
    1U      SC3    5   2.044   1.993   4.271
    1U      SC4    6   1.891   2.050   4.210
    2U      BB1    7   2.550   2.501   4.251
    2U      BB2    8   2.680   2.183   4.132
    2U      BB3    9   2.646   2.034   4.026
    2U      SC1   10   2.341   2.144   4.025
    2U      SC2   11   2.363   1.892   3.956
    2U      SC3   12   2.210   1.978   3.948
    2U      SC4   13   2.095   2.104   3.956
    3A      BB1   14   2.814   2.264   3.788
    3A      BB2   15   2.771   1.955   3.597
    3A      BB3   16   2.650   1.837   3.512
    3A      SC1   17   2.453   1.988   3.614
    3A      SC2   18   2.305   1.843   3.511
    3A      SC3   19   2.110   1.840   3.474
    3A      SC4   20   2.067   2.045   3.583
    3A      SC5   21   2.290   2.051   3.620
    4U      BB1   22   2.820   2.073   3.228
    4U      BB2   23   2.568   1.865   3.059
    4U      BB3   24   2.390   1.827   3.038
    4U      SC1   25   2.330   2.089   3.222
    4U      SC2   26   2.124   1.938   3.173
    4U      SC3   27   2.106   2.091   3.260
    4U      SC4   28   2.151   2.241   3.335
    5A      BB1   29   2.500   2.005   2.703
    5A      BB2   30   2.154   1.935   2.590
    5A      BB3   31   1.974   1.976   2.634
    5A      SC1   32   2.069   2.140   2.837
    5A      SC2   33   1.844   2.183   2.850
    5A      SC3   34   1.730   2.312   2.945
    5A      SC4   35   1.912   2.420   3.056
    5A      SC5   36   2.040   2.273   2.947
    6U      BB1   37   2.104   2.147   2.296
    6U      BB2   38   1.766   2.270   2.321
    6U      BB3   39   1.636   2.375   2.407
    6U      SC1   40   1.884   2.440   2.600
    6U      SC2   41   1.659   2.542   2.686
    6U      SC3   42   1.811   2.584   2.760
    6U      SC4   43   1.981   2.591   2.789
    7A      BB1   44   1.769   2.572   2.087
    7A      BB2   45   1.532   2.792   2.213
    7A      BB3   46   1.478   2.922   2.336
    7A      SC1   47   1.703   2.850   2.462
    7A      SC2   48   1.638   2.991   2.632
    7A      SC3   49   1.724   3.077   2.787
    7A      SC4   50   1.934   2.977   2.753
    7A      SC5   51   1.837   2.880   2.571
    8U      BB1   52   1.625   3.114   2.022
    8U      BB2   53   1.512   3.384   2.207
    8U      BB3   54   1.555   3.490   2.355
    8U      SC1   55   1.786   3.272   2.404
    8U      SC2   56   1.756   3.432   2.607
    8U      SC3   57   1.894   3.323   2.597
    8U      SC4   58   2.002   3.200   2.531
    9A      BB1   59   1.707   3.659   2.047
    9A      BB2   60   1.808   3.881   2.303
    9A      BB3   61   1.950   3.917   2.428
    9A      SC1   62   2.022   3.661   2.405
    9A      SC2   63   2.159   3.703   2.584
    9A      SC3   64   2.312   3.614   2.672
    9A      SC4   65   2.313   3.428   2.526
    9A      SC5   66   2.139   3.532   2.425
   10U      BB1   67   2.062   4.098   2.083
   10U      BB2   68   2.337   4.182   2.322
   10U      BB3   69   2.490   4.119   2.417
   10U      SC1   70   2.392   3.834   2.307
   10U      SC2   71   2.586   3.822   2.485
   10U      SC3   72   2.536   3.681   2.387
   10U      SC4   73   2.449   3.587   2.268
   11A      BB1   74   2.581   4.339   2.087
   11A      BB2   75   2.870   4.095   2.069
   11A      BB3   76   2.959   3.988   2.195
   11A      SC1   77   2.766   3.812   2.124
   11A      SC2   78   2.923   3.664   2.209
   11A      SC3   79   2.947   3.468   2.207
   11A      SC4   80   2.751   3.425   2.080
   11A      SC5   81   2.724   3.648   2.084
   12U      BB1   82   3.168   4.098   1.849
   12U      BB2   83   3.408   3.875   1.956
   12U      BB3   84   3.411   3.699   2.019
   12U      SC1   85   3.109   3.665   1.889
   12U      SC2   86   3.234   3.458   1.982
   12U      SC3   87   3.081   3.441   1.889
   12U      SC4   88   2.939   3.492   1.797
   13A      BB1   89   3.638   3.767   1.682
   13A      BB2   90   3.702   3.404   1.729
   13A      BB3   91   3.638   3.225   1.695
   13A      SC1   92   3.397   3.346   1.662
   13A      SC2   93   3.320   3.131   1.623
   13A      SC3   94   3.152   3.050   1.559
   13A      SC4   95   3.039   3.257   1.530
   13A      SC5   96   3.232   3.349   1.603
   14A      BB1   97   3.869   3.341   1.399
   14A      BB2   98   3.744   3.036   1.258
   14A      BB3   99   3.596   2.940   1.195
   14A      SC1  100   3.434   3.156   1.250
   14A      SC2  101   3.257   3.015   1.204
   14A      SC3  102   3.060   3.032   1.176
   14A      SC4  103   3.058   3.264   1.201
   14A      SC5  104   3.283   3.246   1.236
   15U      BB2  105   2.296   2.824   1.085
   15U      BB3  106   2.466   2.791   1.000
   15U      SC1  107   2.523   3.100   1.093
   15U      SC2  108   2.711   2.920   1.079
   15U      SC3  109   2.740   3.078   1.157
   15U      SC4  110   2.705   3.240   1.214
   16U      BB1  111   2.304   2.586   1.315
   16U      BB2  112   2.643   2.476   1.371
   16U      BB3  113   2.828   2.529   1.390
   16U      SC1  114   2.691   2.824   1.410
   16U      SC2  115   2.950   2.813   1.401
   16U      SC3  116   2.866   2.964   1.439
   16U      SC4  117   2.737   3.074   1.469
   17A      BB1  118   2.678   2.390   1.723
   17A      BB2  119   2.996   2.459   1.871
   17A      BB3  120   3.138   2.582   1.884
   17A      SC1  121   2.950   2.757   1.814
   17A      SC2  122   3.110   2.916   1.861
   17A      SC3  123   3.112   3.113   1.881
   17A      SC4  124   2.884   3.143   1.833
   17A      SC5  125   2.880   2.917   1.811
   18U      BB1  126   2.982   2.451   2.249
   18U      BB2  127   3.201   2.722   2.325
   18U      BB3  128   3.225   2.909   2.344
   18U      SC1  129   2.941   2.922   2.193
   18U      SC2  130   3.064   3.151   2.214
   18U      SC3  131   2.896   3.140   2.159
   18U      SC4  132   2.744   3.072   2.114
   19A      BB1  133   3.119   2.756   2.699
   19A      BB2  134   3.216   3.087   2.784
   19A      BB3  135   3.159   3.271   2.763
   19A      SC1  136   2.978   3.185   2.583
   19A      SC2  137   2.932   3.410   2.578
   19A      SC3  138   2.789   3.523   2.507
   19A      SC4  139   2.660   3.344   2.420
   19A      SC5  140   2.827   3.213   2.501
   20U      BB1  141   3.049   3.108   3.132
   20U      BB2  142   2.896   3.451   3.177
   20U      BB3  143   2.796   3.582   3.090
   20U      SC1  144   2.724   3.336   2.896
   20U      SC2  145   2.609   3.565   2.838
   20U      SC3  146   2.553   3.413   2.771
   20U      SC4  147   2.540   3.245   2.734
   21A      BB1  148   2.656   3.412   3.434
   21A      BB2  149   2.393   3.632   3.396
   21A      BB3  150   2.258   3.676   3.274
   21A      SC1  151   2.345   3.466   3.127
   21A      SC2  152   2.169   3.536   2.993
   21A      SC3  153   2.067   3.464   2.838
   21A      SC4  154   2.186   3.263   2.829
   21A      SC5  155   2.305   3.345   3.009
   22U      BB1  156   2.103   3.496   3.603
   22U      BB2  157   1.804   3.537   3.461
   22U      BB3  158   1.707   3.509   3.303
   22U      SC1  159   1.954   3.302   3.227
   22U      SC2  160   1.761   3.326   3.060
   22U      SC3  161   1.882   3.197   3.038
   22U      SC4  162   2.027   3.102   3.072
   23A      BB1  163   1.569   3.313   3.625
   23A      BB2  164   1.350   3.203   3.377
   23A      BB3  165   1.324   3.097   3.217
   23A      SC1  166   1.582   3.042   3.213
   23A      SC2  167   1.528   2.929   3.020
   23A      SC3  168   1.619   2.800   2.904
   23A      SC4  169   1.819   2.791   3.034
   23A      SC5  170   1.713   2.937   3.166
   24U      BB1  171   1.181   2.907   3.559
   24U      BB2  172   1.112   2.641   3.294
   24U      BB3  173   1.175   2.564   3.131
   24U      SC1  174   1.461   2.649   3.272
   24U      SC2  175   1.482   2.490   3.066
   24U      SC3  176   1.619   2.528   3.170
   24U      SC4  177   1.716   2.593   3.298
   25A      BB1  178   1.000   2.312   3.411
   25A      BB2  179   1.116   2.083   3.165
   25A      BB3  180   1.275   1.995   3.105
   25A      SC1  181   1.422   2.175   3.248
   25A      SC2  182   1.602   2.064   3.159
   25A      SC3  183   1.798   2.064   3.186
   25A      SC4  184   1.795   2.226   3.359
   25A      SC5  185   1.571   2.227   3.325
   26U      BB1  186   1.098   1.778   3.396
   26U      BB2  187   1.368   1.546   3.276
   26U      BB3  188   1.553   1.541   3.232
   26U      SC1  189   1.570   1.811   3.413
   26U      SC2  190   1.792   1.716   3.319
   26U      SC3  191   1.789   1.845   3.443
   26U      SC4  192   1.723   1.961   3.560
   27A      BB1  193   1.420   1.276   3.519
   27A      BB2  194   1.763   1.221   3.511
   27A      BB3  195   1.937   1.267   3.575
   27A      SC1  196   1.819   1.498   3.643
   27A      SC2  197   2.033   1.553   3.704
   27A      SC3  198   2.119   1.700   3.806
   27A      SC4  199   1.919   1.812   3.852
   27A      SC5  200   1.818   1.645   3.737
   28A      BB1  201   1.780   1.000   3.825
   28A      BB2  202   2.095   1.045   4.018
   28A      BB3  203   2.208   1.192   4.053
   28A      SC1  204   1.982   1.340   4.045
   28A      SC2  205   2.123   1.514   4.090
   28A      SC3  206   2.104   1.703   4.145
   28A      SC4  207   1.868   1.699   4.159
   28A      SC5  208   1.890   1.482   4.093
   4.86940   5.33880   5.49510
