; MARTINI (martini30rna) Coarse Grained topology file for "SEQRNA"
; Generated by nucleic_builder Phase 2A
; Input mode: sequence-derived ideal A-form dsRNA
; Strand A (5'->3'): GCAUCG
; Strand B (5'->3'): CGAUGC
; Strand B paired orientation (3'->5'): CGUAGC
; Duplex orientation: strand A 5'->3'; strand B antiparallel 3'->5'
; Structure generator: AmberClassic NAB v2.0
; Structure generator repository: https://github.com/Amber-MD/AmberClassic
; Structure generator commit: bdb3e0dee5b90f2be2950e26cfad1ae5a7440cae
; Structure generator settings: fd_helix("arna", sequence, "rna"); putpdb("-wwpdb")
; Intermediate PDB SHA-256: 8ce8a436b8d2da812de01dc23685fc7b9aee5bca0918891bd4854900bc6b3a43
; Upstream: https://github.com/DanYev/Martini-3-DNA-RNA
; Upstream commit: e761b7349fdf61dd485053c000dbb642f24ff9d8
; License: GPL-3.0-only; see distribution LICENSE and nucleic_builder/_vendor/martini_3_dna_rna/NOTICE.md
; Elastic network policy: off
; Elastic bonds: 0; cross-chain elastic bonds: 0
; Chain mapping: <blank> (segment 1): input 1-6 => residues 1-6; <blank> (segment 2): input 7-12 => residues 7-12
; ####################################################################################################
; Sequence:
; GCAUCGCGAUGC
; Secondary Structure:
; FFFFFFFFFFFF

[ moleculetype ]
; Name         Exclusions
SEQRNA            1

[ atoms ]
    1    N1     1     G   BB2     1  0.0000 60.0000
    2    N3     1     G   BB3     1  0.0000 60.0000
    3   TG0     1     G   SC1     2  0.0000 50.0000
    4   TG1     1     G   SC2     2  0.0000  0.0000
    5   TG2     1     G   SC3     2  0.0000 50.0000
    6   TG3     1     G   SC4     2  0.0000  0.0000
    7   TG4     1     G   SC5     2  0.0000 50.0000
    8   TG5     1     G   SC6     2  0.0000  0.0000
    9   Q1n     2     C   BB1    10 -1.0000 72.0000
   10    N1     2     C   BB2    10  0.0000 60.0000
   11    N3     2     C   BB3    10  0.0000 60.0000
   12   TY0     2     C   SC1    11  0.0000 37.0000
   13   TY1     2     C   SC2    11  0.0000 37.0000
   14   TY2     2     C   SC3    11  0.0000  0.0000
   15   TY3     2     C   SC4    11  0.0000 37.0000
   16   Q1n     3     A   BB1    17 -1.0000 72.0000
   17    N1     3     A   BB2    17  0.0000 60.0000
   18    N3     3     A   BB3    17  0.0000 60.0000
   19   TA0     3     A   SC1    18  0.0000 45.0000
   20   TA1     3     A   SC2    18  0.0000  0.0000
   21   TA2     3     A   SC3    18  0.0000 45.0000
   22   TA3     3     A   SC4    18  0.0000 45.0000
   23   TA4     3     A   SC5    18  0.0000  0.0000
   24   Q1n     4     U   BB1    25 -1.0000 72.0000
   25    N1     4     U   BB2    25  0.0000 60.0000
   26    N3     4     U   BB3    25  0.0000 60.0000
   27   TU0     4     U   SC1    26  0.0000 37.0000
   28   TU1     4     U   SC2    26  0.0000 37.0000
   29   TU2     4     U   SC3    26  0.0000  0.0000
   30   TU3     4     U   SC4    26  0.0000 37.0000
   31   Q1n     5     C   BB1    32 -1.0000 72.0000
   32    N1     5     C   BB2    32  0.0000 60.0000
   33    N3     5     C   BB3    32  0.0000 60.0000
   34   TY0     5     C   SC1    33  0.0000 37.0000
   35   TY1     5     C   SC2    33  0.0000 37.0000
   36   TY2     5     C   SC3    33  0.0000  0.0000
   37   TY3     5     C   SC4    33  0.0000 37.0000
   38   Q1n     6     G   BB1    39 -1.0000 72.0000
   39    N1     6     G   BB2    39  0.0000 60.0000
   40    N3     6     G   BB3    39  0.0000 60.0000
   41   TG0     6     G   SC1    40  0.0000 50.0000
   42   TG1     6     G   SC2    40  0.0000  0.0000
   43   TG2     6     G   SC3    40  0.0000 50.0000
   44   TG3     6     G   SC4    40  0.0000  0.0000
   45   TG4     6     G   SC5    40  0.0000 50.0000
   46   TG5     6     G   SC6    40  0.0000  0.0000
   47    N1     7     C   BB2    47  0.0000 60.0000
   48    N3     7     C   BB3    47  0.0000 60.0000
   49   TY0     7     C   SC1    48  0.0000 37.0000
   50   TY1     7     C   SC2    48  0.0000 37.0000
   51   TY2     7     C   SC3    48  0.0000  0.0000
   52   TY3     7     C   SC4    48  0.0000 37.0000
   53   Q1n     8     G   BB1    54 -1.0000 72.0000
   54    N1     8     G   BB2    54  0.0000 60.0000
   55    N3     8     G   BB3    54  0.0000 60.0000
   56   TG0     8     G   SC1    55  0.0000 50.0000
   57   TG1     8     G   SC2    55  0.0000  0.0000
   58   TG2     8     G   SC3    55  0.0000 50.0000
   59   TG3     8     G   SC4    55  0.0000  0.0000
   60   TG4     8     G   SC5    55  0.0000 50.0000
   61   TG5     8     G   SC6    55  0.0000  0.0000
   62   Q1n     9     A   BB1    63 -1.0000 72.0000
   63    N1     9     A   BB2    63  0.0000 60.0000
   64    N3     9     A   BB3    63  0.0000 60.0000
   65   TA0     9     A   SC1    64  0.0000 45.0000
   66   TA1     9     A   SC2    64  0.0000  0.0000
   67   TA2     9     A   SC3    64  0.0000 45.0000
   68   TA3     9     A   SC4    64  0.0000 45.0000
   69   TA4     9     A   SC5    64  0.0000  0.0000
   70   Q1n    10     U   BB1    71 -1.0000 72.0000
   71    N1    10     U   BB2    71  0.0000 60.0000
   72    N3    10     U   BB3    71  0.0000 60.0000
   73   TU0    10     U   SC1    72  0.0000 37.0000
   74   TU1    10     U   SC2    72  0.0000 37.0000
   75   TU2    10     U   SC3    72  0.0000  0.0000
   76   TU3    10     U   SC4    72  0.0000 37.0000
   77   Q1n    11     G   BB1    78 -1.0000 72.0000
   78    N1    11     G   BB2    78  0.0000 60.0000
   79    N3    11     G   BB3    78  0.0000 60.0000
   80   TG0    11     G   SC1    79  0.0000 50.0000
   81   TG1    11     G   SC2    79  0.0000  0.0000
   82   TG2    11     G   SC3    79  0.0000 50.0000
   83   TG3    11     G   SC4    79  0.0000  0.0000
   84   TG4    11     G   SC5    79  0.0000 50.0000
   85   TG5    11     G   SC6    79  0.0000  0.0000
   86   Q1n    12     C   BB1    87 -1.0000 72.0000
   87    N1    12     C   BB2    87  0.0000 60.0000
   88    N3    12     C   BB3    87  0.0000 60.0000
   89   TY0    12     C   SC1    88  0.0000 37.0000
   90   TY1    12     C   SC2    88  0.0000 37.0000
   91   TY2    12     C   SC3    88  0.0000  0.0000
   92   TY3    12     C   SC4    88  0.0000 37.0000

[ bonds ]
    1       2    1    0.2380   18000.0000 ; BB2-BB3
    1       9    1    0.3750   12000.0000 ; BB2-BB1n
    2       9    1    0.4140   12000.0000 ; BB3-BB1n
    9      10    1    0.3510   18000.0000 ; BB1-BB2
   10      11    1    0.2380   18000.0000 ; BB2-BB3
   10      16    1    0.3750   12000.0000 ; BB2-BB1n
   11      16    1    0.4140   12000.0000 ; BB3-BB1n
   16      17    1    0.3510   18000.0000 ; BB1-BB2
   17      18    1    0.2380   18000.0000 ; BB2-BB3
   17      24    1    0.3750   12000.0000 ; BB2-BB1n
   18      24    1    0.4140   12000.0000 ; BB3-BB1n
   24      25    1    0.3510   18000.0000 ; BB1-BB2
   25      26    1    0.2380   18000.0000 ; BB2-BB3
   25      31    1    0.3750   12000.0000 ; BB2-BB1n
   26      31    1    0.4140   12000.0000 ; BB3-BB1n
   31      32    1    0.3510   18000.0000 ; BB1-BB2
   32      33    1    0.2380   18000.0000 ; BB2-BB3
   32      38    1    0.3750   12000.0000 ; BB2-BB1n
   33      38    1    0.4140   12000.0000 ; BB3-BB1n
   38      39    1    0.3510   18000.0000 ; BB1-BB2
   39      40    1    0.2380   18000.0000 ; BB2-BB3
    2       3    1    0.2900   15000.0000 ; BB3-SC1
    1       3    3    0.3500    4.4000   20.0000 ; BB2-SC1
    2       4    1    0.3400   12000.0000 ; BB3-SC2
   11      12    1    0.3250   15000.0000 ; BB3-SC1
   10      12    3    0.4140    4.4000   22.0000 ; BB2-SC1
   11      13    1    0.3270   12000.0000 ; BB3-SC2
   18      19    1    0.2920   15000.0000 ; BB3-SC1
   17      19    3    0.3520    4.5000   20.0000 ; BB2-SC1
   18      20    1    0.3280   12000.0000 ; BB3-SC2
   26      27    1    0.3250   15000.0000 ; BB3-SC1
   25      27    3    0.4160    4.5000   20.0000 ; BB2-SC1
   26      28    1    0.3240   12000.0000 ; BB3-SC2
   33      34    1    0.3250   15000.0000 ; BB3-SC1
   32      34    3    0.4140    4.4000   22.0000 ; BB2-SC1
   33      35    1    0.3270   12000.0000 ; BB3-SC2
   40      41    1    0.2900   15000.0000 ; BB3-SC1
   39      41    3    0.3500    4.4000   20.0000 ; BB2-SC1
   40      42    1    0.3400   12000.0000 ; BB3-SC2
   47      48    1    0.2380   18000.0000 ; BB2-BB3
   47      53    1    0.3750   12000.0000 ; BB2-BB1n
   48      53    1    0.4140   12000.0000 ; BB3-BB1n
   53      54    1    0.3510   18000.0000 ; BB1-BB2
   54      55    1    0.2380   18000.0000 ; BB2-BB3
   54      62    1    0.3750   12000.0000 ; BB2-BB1n
   55      62    1    0.4140   12000.0000 ; BB3-BB1n
   62      63    1    0.3510   18000.0000 ; BB1-BB2
   63      64    1    0.2380   18000.0000 ; BB2-BB3
   63      70    1    0.3750   12000.0000 ; BB2-BB1n
   64      70    1    0.4140   12000.0000 ; BB3-BB1n
   70      71    1    0.3510   18000.0000 ; BB1-BB2
   71      72    1    0.2380   18000.0000 ; BB2-BB3
   71      77    1    0.3750   12000.0000 ; BB2-BB1n
   72      77    1    0.4140   12000.0000 ; BB3-BB1n
   77      78    1    0.3510   18000.0000 ; BB1-BB2
   78      79    1    0.2380   18000.0000 ; BB2-BB3
   78      86    1    0.3750   12000.0000 ; BB2-BB1n
   79      86    1    0.4140   12000.0000 ; BB3-BB1n
   86      87    1    0.3510   18000.0000 ; BB1-BB2
   87      88    1    0.2380   18000.0000 ; BB2-BB3
   48      49    1    0.3250   15000.0000 ; BB3-SC1
   47      49    3    0.4140    4.4000   22.0000 ; BB2-SC1
   48      50    1    0.3270   12000.0000 ; BB3-SC2
   55      56    1    0.2900   15000.0000 ; BB3-SC1
   54      56    3    0.3500    4.4000   20.0000 ; BB2-SC1
   55      57    1    0.3400   12000.0000 ; BB3-SC2
   64      65    1    0.2920   15000.0000 ; BB3-SC1
   63      65    3    0.3520    4.5000   20.0000 ; BB2-SC1
   64      66    1    0.3280   12000.0000 ; BB3-SC2
   72      73    1    0.3250   15000.0000 ; BB3-SC1
   71      73    3    0.4160    4.5000   20.0000 ; BB2-SC1
   72      74    1    0.3240   12000.0000 ; BB3-SC2
   79      80    1    0.2900   15000.0000 ; BB3-SC1
   78      80    3    0.3500    4.4000   20.0000 ; BB2-SC1
   79      81    1    0.3400   12000.0000 ; BB3-SC2
   88      89    1    0.3250   15000.0000 ; BB3-SC1
   87      89    3    0.4140    4.4000   22.0000 ; BB2-SC1
   88      90    1    0.3270   12000.0000 ; BB3-SC2

[ angles ]
    1       9      10   10   123.0000   150.0000 ; BB2-BB1n-BB2n
    9      10      16   10   106.0000   50.0000 ; BB1-BB2-BB1n
   10      16      17   10   123.0000   150.0000 ; BB2-BB1n-BB2n
    9      10      11   10   142.0000   300.0000 ; BB1-BB2-BB3
   16      17      24   10   106.0000   50.0000 ; BB1-BB2-BB1n
   17      24      25   10   123.0000   150.0000 ; BB2-BB1n-BB2n
   16      17      18   10   142.0000   300.0000 ; BB1-BB2-BB3
   24      25      31   10   106.0000   50.0000 ; BB1-BB2-BB1n
   25      31      32   10   123.0000   150.0000 ; BB2-BB1n-BB2n
   24      25      26   10   142.0000   300.0000 ; BB1-BB2-BB3
   31      32      38   10   106.0000   50.0000 ; BB1-BB2-BB1n
   32      38      39   10   123.0000   150.0000 ; BB2-BB1n-BB2n
   31      32      33   10   142.0000   300.0000 ; BB1-BB2-BB3
   38      39      40   10   142.0000   300.0000 ; BB1-BB2-BB3
    2       1       9   10   72.0000   80.0000 ; BB3-BB2-BB1n
    1       2       3   10   80.0000   250.0000 ; BB2-BB3-SC1
    2       3       5   10   76.0000   300.0000 ; BB3-SC1-SC3
    2       3       7   10   123.0000   250.0000 ; BB3-SC1-SC5
   11      10      16   10   72.0000   80.0000 ; BB3-BB2-BB1n
   10      11      12   10   92.0000   250.0000 ; BB2-BB3-SC1
   11      12      13   10   68.5000   400.0000 ; BB3-SC1-SC2
   11      12      15   10   142.0000   350.0000 ; BB3-SC1-SC4
   18      17      24   10   72.0000   80.0000 ; BB3-BB2-BB1n
   17      18      19   10   81.0000   250.0000 ; BB2-BB3-SC1
   18      19      21   10   87.0000   300.0000 ; BB3-SC1-SC3
   18      19      22   10   128.0000   250.0000 ; BB3-SC1-SC4
   26      25      31   10   72.0000   80.0000 ; BB3-BB2-BB1n
   25      26      27   10   92.0000   250.0000 ; BB2-BB3-SC1
   26      27      28   10   65.0000   400.0000 ; BB3-SC1-SC2
   26      27      30   10   143.0000   350.0000 ; BB3-SC1-SC4
   33      32      38   10   72.0000   80.0000 ; BB3-BB2-BB1n
   32      33      34   10   92.0000   250.0000 ; BB2-BB3-SC1
   33      34      35   10   68.5000   400.0000 ; BB3-SC1-SC2
   33      34      37   10   142.0000   350.0000 ; BB3-SC1-SC4
   39      40      41   10   80.0000   250.0000 ; BB2-BB3-SC1
   40      41      43   10   76.0000   300.0000 ; BB3-SC1-SC3
   40      41      45   10   123.0000   250.0000 ; BB3-SC1-SC5
   47      53      54   10   123.0000   150.0000 ; BB2-BB1n-BB2n
   53      54      62   10   106.0000   50.0000 ; BB1-BB2-BB1n
   54      62      63   10   123.0000   150.0000 ; BB2-BB1n-BB2n
   53      54      55   10   142.0000   300.0000 ; BB1-BB2-BB3
   62      63      70   10   106.0000   50.0000 ; BB1-BB2-BB1n
   63      70      71   10   123.0000   150.0000 ; BB2-BB1n-BB2n
   62      63      64   10   142.0000   300.0000 ; BB1-BB2-BB3
   70      71      77   10   106.0000   50.0000 ; BB1-BB2-BB1n
   71      77      78   10   123.0000   150.0000 ; BB2-BB1n-BB2n
   70      71      72   10   142.0000   300.0000 ; BB1-BB2-BB3
   77      78      86   10   106.0000   50.0000 ; BB1-BB2-BB1n
   78      86      87   10   123.0000   150.0000 ; BB2-BB1n-BB2n
   77      78      79   10   142.0000   300.0000 ; BB1-BB2-BB3
   86      87      88   10   142.0000   300.0000 ; BB1-BB2-BB3
   48      47      53   10   72.0000   80.0000 ; BB3-BB2-BB1n
   47      48      49   10   92.0000   250.0000 ; BB2-BB3-SC1
   48      49      50   10   68.5000   400.0000 ; BB3-SC1-SC2
   48      49      52   10   142.0000   350.0000 ; BB3-SC1-SC4
   55      54      62   10   72.0000   80.0000 ; BB3-BB2-BB1n
   54      55      56   10   80.0000   250.0000 ; BB2-BB3-SC1
   55      56      58   10   76.0000   300.0000 ; BB3-SC1-SC3
   55      56      60   10   123.0000   250.0000 ; BB3-SC1-SC5
   64      63      70   10   72.0000   80.0000 ; BB3-BB2-BB1n
   63      64      65   10   81.0000   250.0000 ; BB2-BB3-SC1
   64      65      67   10   87.0000   300.0000 ; BB3-SC1-SC3
   64      65      68   10   128.0000   250.0000 ; BB3-SC1-SC4
   72      71      77   10   72.0000   80.0000 ; BB3-BB2-BB1n
   71      72      73   10   92.0000   250.0000 ; BB2-BB3-SC1
   72      73      74   10   65.0000   400.0000 ; BB3-SC1-SC2
   72      73      76   10   143.0000   350.0000 ; BB3-SC1-SC4
   79      78      86   10   72.0000   80.0000 ; BB3-BB2-BB1n
   78      79      80   10   80.0000   250.0000 ; BB2-BB3-SC1
   79      80      82   10   76.0000   300.0000 ; BB3-SC1-SC3
   79      80      84   10   123.0000   250.0000 ; BB3-SC1-SC5
   87      88      89   10   92.0000   250.0000 ; BB2-BB3-SC1
   88      89      90   10   68.5000   400.0000 ; BB3-SC1-SC2
   88      89      92   10   142.0000   350.0000 ; BB3-SC1-SC4

[ dihedrals ]
    9      10      16      17    3   13.0000   -7.0000   -25.0000   -6.0000   25.0000    2.0000 ; BB1-BB2-BB1n-BB2n
    1       9      10      16    1    0.0000    7.0000    1.0000 ; BB2p-BB1-BB2-BB1n
    1       9      10      11    1   -105.0000   10.0000    1.0000 ; BB2p-BB1-BB2-BB3
   16      17      24      25    3   13.0000   -7.0000   -25.0000   -6.0000   25.0000    2.0000 ; BB1-BB2-BB1n-BB2n
   10      16      17      24    1    0.0000    7.0000    1.0000 ; BB2p-BB1-BB2-BB1n
   10      16      17      18    1   -105.0000   10.0000    1.0000 ; BB2p-BB1-BB2-BB3
   24      25      31      32    3   13.0000   -7.0000   -25.0000   -6.0000   25.0000    2.0000 ; BB1-BB2-BB1n-BB2n
   17      24      25      31    1    0.0000    7.0000    1.0000 ; BB2p-BB1-BB2-BB1n
   17      24      25      26    1   -105.0000   10.0000    1.0000 ; BB2p-BB1-BB2-BB3
   31      32      38      39    3   13.0000   -7.0000   -25.0000   -6.0000   25.0000    2.0000 ; BB1-BB2-BB1n-BB2n
   25      31      32      38    1    0.0000    7.0000    1.0000 ; BB2p-BB1-BB2-BB1n
   25      31      32      33    1   -105.0000   10.0000    1.0000 ; BB2p-BB1-BB2-BB3
   32      38      39      40    1   -105.0000   10.0000    1.0000 ; BB2p-BB1-BB2-BB3
    2       1       9      10    1   170.0000    2.5000    1.0000 ; BB3-BB2-BB1n-BB2n
    3       2       1       9    1   24.0000   11.0000    5.0000 ; SC1-BB3-BB2-BB1n
    9       1       2       3    1   70.0000   25.0000    1.0000 ; SC1-BB3-BB2-BB1n
    1       2       3       5    1   12.0000   40.0000    1.0000 ; BB2-BB3-SC1-SC3
    1       2       3       7    1    0.0000   40.0000    1.0000 ; BB2-BB3-SC1-SC5
    2       3       5       7    1   12.0000   90.0000    1.0000 ; BB3-SC1-SC3-SC5
    2       3       7       5    1   192.0000   90.0000    1.0000 ; BB3-SC1-SC5-SC3
   11      10      16      17    1   165.0000    2.5000    1.0000 ; BB3-BB2-BB1n-BB2n
   12      11      10      16    1   25.0000   12.0000    5.0000 ; SC1-BB3-BB2-BB1n
   16      10      11      12    1   75.0000   30.0000    1.0000 ; SC1-BB3-BB2-BB1n
    9      10      11      12    1   180.0000   35.0000    1.0000 ; BB1-BB2-BB3-SC1
   10      11      12      13    1    4.0000   60.0000    1.0000 ; BB2-BB3-SC1-SC2
   10      11      12      15    1   -5.0000   40.0000    1.0000 ; BB2-BB3-SC1-SC4
   11      12      13      15    1   14.0000   100.0000    1.0000 ; BB3-SC1-SC2-SC4
   11      12      15      13    1   194.0000   100.0000    1.0000 ; BB3-SC1-SC4-SC2
   18      17      24      25    1   170.0000    2.5000    1.0000 ; BB3-BB2-BB1n-BB2n
   19      18      17      24    1   24.0000   11.0000    5.0000 ; SC1-BB3-BB2-BB1n
   24      17      18      19    1   70.0000   25.0000    1.0000 ; SC1-BB3-BB2-BB1n
   16      17      18      19    1   184.0000   35.0000    1.0000 ; BB1-BB2-BB3-SC1
   17      18      19      21    1    6.0000   40.0000    1.0000 ; BB2-BB3-SC1-SC3
   17      18      19      22    1   -10.0000   30.0000    1.0000 ; BB2-BB3-SC1-SC4
   18      19      21      22    1   16.0000   90.0000    1.0000 ; BB3-SC1-SC3-SC4
   18      19      22      21    1   196.0000   90.0000    1.0000 ; BB3-SC1-SC4-SC3
   26      25      31      32    1   170.0000    2.5000    1.0000 ; BB3-BB2-BB1n-BB2n
   27      26      25      31    1   25.0000   12.0000    5.0000 ; SC1-BB3-BB2-BB1n
   31      25      26      27    1   75.0000   30.0000    1.0000 ; SC1-BB3-BB2-BB1n
   24      25      26      27    1   180.0000   35.0000    1.0000 ; BB1-BB2-BB3-SC1
   25      26      27      28    1    5.0000   60.0000    1.0000 ; BB2-BB3-SC1-SC2
   25      26      27      30    1   -6.0000   50.0000    1.0000 ; BB2-BB3-SC1-SC4
   26      27      28      30    1   15.0000   100.0000    1.0000 ; BB3-SC1-SC2-SC4
   26      27      30      28    1   196.0000   100.0000    1.0000 ; BB3-SC1-SC4-SC2
   33      32      38      39    1   165.0000    2.5000    1.0000 ; BB3-BB2-BB1n-BB2n
   34      33      32      38    1   25.0000   12.0000    5.0000 ; SC1-BB3-BB2-BB1n
   38      32      33      34    1   75.0000   30.0000    1.0000 ; SC1-BB3-BB2-BB1n
   31      32      33      34    1   180.0000   35.0000    1.0000 ; BB1-BB2-BB3-SC1
   32      33      34      35    1    4.0000   60.0000    1.0000 ; BB2-BB3-SC1-SC2
   32      33      34      37    1   -5.0000   40.0000    1.0000 ; BB2-BB3-SC1-SC4
   33      34      35      37    1   14.0000   100.0000    1.0000 ; BB3-SC1-SC2-SC4
   33      34      37      35    1   194.0000   100.0000    1.0000 ; BB3-SC1-SC4-SC2
   38      39      40      41    1   190.0000   35.0000    1.0000 ; BB1-BB2-BB3-SC1
   39      40      41      43    1   12.0000   40.0000    1.0000 ; BB2-BB3-SC1-SC3
   39      40      41      45    1    0.0000   40.0000    1.0000 ; BB2-BB3-SC1-SC5
   40      41      43      45    1   12.0000   90.0000    1.0000 ; BB3-SC1-SC3-SC5
   40      41      45      43    1   192.0000   90.0000    1.0000 ; BB3-SC1-SC5-SC3
   53      54      62      63    3   13.0000   -7.0000   -25.0000   -6.0000   25.0000    2.0000 ; BB1-BB2-BB1n-BB2n
   47      53      54      62    1    0.0000    7.0000    1.0000 ; BB2p-BB1-BB2-BB1n
   47      53      54      55    1   -105.0000   10.0000    1.0000 ; BB2p-BB1-BB2-BB3
   62      63      70      71    3   13.0000   -7.0000   -25.0000   -6.0000   25.0000    2.0000 ; BB1-BB2-BB1n-BB2n
   54      62      63      70    1    0.0000    7.0000    1.0000 ; BB2p-BB1-BB2-BB1n
   54      62      63      64    1   -105.0000   10.0000    1.0000 ; BB2p-BB1-BB2-BB3
   70      71      77      78    3   13.0000   -7.0000   -25.0000   -6.0000   25.0000    2.0000 ; BB1-BB2-BB1n-BB2n
   63      70      71      77    1    0.0000    7.0000    1.0000 ; BB2p-BB1-BB2-BB1n
   63      70      71      72    1   -105.0000   10.0000    1.0000 ; BB2p-BB1-BB2-BB3
   77      78      86      87    3   13.0000   -7.0000   -25.0000   -6.0000   25.0000    2.0000 ; BB1-BB2-BB1n-BB2n
   71      77      78      86    1    0.0000    7.0000    1.0000 ; BB2p-BB1-BB2-BB1n
   71      77      78      79    1   -105.0000   10.0000    1.0000 ; BB2p-BB1-BB2-BB3
   78      86      87      88    1   -105.0000   10.0000    1.0000 ; BB2p-BB1-BB2-BB3
   48      47      53      54    1   165.0000    2.5000    1.0000 ; BB3-BB2-BB1n-BB2n
   49      48      47      53    1   25.0000   12.0000    5.0000 ; SC1-BB3-BB2-BB1n
   53      47      48      49    1   75.0000   30.0000    1.0000 ; SC1-BB3-BB2-BB1n
   47      48      49      50    1    4.0000   60.0000    1.0000 ; BB2-BB3-SC1-SC2
   47      48      49      52    1   -5.0000   40.0000    1.0000 ; BB2-BB3-SC1-SC4
   48      49      50      52    1   14.0000   100.0000    1.0000 ; BB3-SC1-SC2-SC4
   48      49      52      50    1   194.0000   100.0000    1.0000 ; BB3-SC1-SC4-SC2
   55      54      62      63    1   170.0000    2.5000    1.0000 ; BB3-BB2-BB1n-BB2n
   56      55      54      62    1   24.0000   11.0000    5.0000 ; SC1-BB3-BB2-BB1n
   62      54      55      56    1   70.0000   25.0000    1.0000 ; SC1-BB3-BB2-BB1n
   53      54      55      56    1   190.0000   35.0000    1.0000 ; BB1-BB2-BB3-SC1
   54      55      56      58    1   12.0000   40.0000    1.0000 ; BB2-BB3-SC1-SC3
   54      55      56      60    1    0.0000   40.0000    1.0000 ; BB2-BB3-SC1-SC5
   55      56      58      60    1   12.0000   90.0000    1.0000 ; BB3-SC1-SC3-SC5
   55      56      60      58    1   192.0000   90.0000    1.0000 ; BB3-SC1-SC5-SC3
   64      63      70      71    1   170.0000    2.5000    1.0000 ; BB3-BB2-BB1n-BB2n
   65      64      63      70    1   24.0000   11.0000    5.0000 ; SC1-BB3-BB2-BB1n
   70      63      64      65    1   70.0000   25.0000    1.0000 ; SC1-BB3-BB2-BB1n
   62      63      64      65    1   184.0000   35.0000    1.0000 ; BB1-BB2-BB3-SC1
   63      64      65      67    1    6.0000   40.0000    1.0000 ; BB2-BB3-SC1-SC3
   63      64      65      68    1   -10.0000   30.0000    1.0000 ; BB2-BB3-SC1-SC4
   64      65      67      68    1   16.0000   90.0000    1.0000 ; BB3-SC1-SC3-SC4
   64      65      68      67    1   196.0000   90.0000    1.0000 ; BB3-SC1-SC4-SC3
   72      71      77      78    1   170.0000    2.5000    1.0000 ; BB3-BB2-BB1n-BB2n
   73      72      71      77    1   25.0000   12.0000    5.0000 ; SC1-BB3-BB2-BB1n
   77      71      72      73    1   75.0000   30.0000    1.0000 ; SC1-BB3-BB2-BB1n
   70      71      72      73    1   180.0000   35.0000    1.0000 ; BB1-BB2-BB3-SC1
   71      72      73      74    1    5.0000   60.0000    1.0000 ; BB2-BB3-SC1-SC2
   71      72      73      76    1   -6.0000   50.0000    1.0000 ; BB2-BB3-SC1-SC4
   72      73      74      76    1   15.0000   100.0000    1.0000 ; BB3-SC1-SC2-SC4
   72      73      76      74    1   196.0000   100.0000    1.0000 ; BB3-SC1-SC4-SC2
   79      78      86      87    1   170.0000    2.5000    1.0000 ; BB3-BB2-BB1n-BB2n
   80      79      78      86    1   24.0000   11.0000    5.0000 ; SC1-BB3-BB2-BB1n
   86      78      79      80    1   70.0000   25.0000    1.0000 ; SC1-BB3-BB2-BB1n
   77      78      79      80    1   190.0000   35.0000    1.0000 ; BB1-BB2-BB3-SC1
   78      79      80      82    1   12.0000   40.0000    1.0000 ; BB2-BB3-SC1-SC3
   78      79      80      84    1    0.0000   40.0000    1.0000 ; BB2-BB3-SC1-SC5
   79      80      82      84    1   12.0000   90.0000    1.0000 ; BB3-SC1-SC3-SC5
   79      80      84      82    1   192.0000   90.0000    1.0000 ; BB3-SC1-SC5-SC3
   86      87      88      89    1   180.0000   35.0000    1.0000 ; BB1-BB2-BB3-SC1
   87      88      89      90    1    4.0000   60.0000    1.0000 ; BB2-BB3-SC1-SC2
   87      88      89      92    1   -5.0000   40.0000    1.0000 ; BB2-BB3-SC1-SC4
   88      89      90      92    1   14.0000   100.0000    1.0000 ; BB3-SC1-SC2-SC4
   88      89      92      90    1   194.0000   100.0000    1.0000 ; BB3-SC1-SC4-SC2

[ constraints ]
    3       5    1    0.5550 ; SC1-SC3
    5       7    1    0.3980 ; SC3-SC5
    7       3    1    0.4160 ; SC5-SC1
   12      13    1    0.2580 ; SC1-SC2
   13      15    1    0.3950 ; SC2-SC4
   15      12    1    0.3180 ; SC4-SC1
   19      21    1    0.4700 ; SC1-SC3
   21      22    1    0.3300 ; SC3-SC4
   22      19    1    0.4560 ; SC4-SC1
   27      28    1    0.2600 ; SC1-SC2
   28      30    1    0.3490 ; SC2-SC4
   30      27    1    0.2600 ; SC4-SC1
   34      35    1    0.2580 ; SC1-SC2
   35      37    1    0.3950 ; SC2-SC4
   37      34    1    0.3180 ; SC4-SC1
   41      43    1    0.5550 ; SC1-SC3
   43      45    1    0.3980 ; SC3-SC5
   45      41    1    0.4160 ; SC5-SC1
   49      50    1    0.2580 ; SC1-SC2
   50      52    1    0.3950 ; SC2-SC4
   52      49    1    0.3180 ; SC4-SC1
   56      58    1    0.5550 ; SC1-SC3
   58      60    1    0.3980 ; SC3-SC5
   60      56    1    0.4160 ; SC5-SC1
   65      67    1    0.4700 ; SC1-SC3
   67      68    1    0.3300 ; SC3-SC4
   68      65    1    0.4560 ; SC4-SC1
   73      74    1    0.2600 ; SC1-SC2
   74      76    1    0.3490 ; SC2-SC4
   76      73    1    0.2600 ; SC4-SC1
   80      82    1    0.5550 ; SC1-SC3
   82      84    1    0.3980 ; SC3-SC5
   84      80    1    0.4160 ; SC5-SC1
   89      90    1    0.2580 ; SC1-SC2
   90      92    1    0.3950 ; SC2-SC4
   92      89    1    0.3180 ; SC4-SC1

[ exclusions ]
    2       9       ; BB3-BB1n
    9      11       ; BB1-BB3
   11      16       ; BB3-BB1n
   16      18       ; BB1-BB3
   18      24       ; BB3-BB1n
   24      26       ; BB1-BB3
   26      31       ; BB3-BB1n
   31      33       ; BB1-BB3
   33      38       ; BB3-BB1n
   38      40       ; BB1-BB3
    1       3      
    2       4      
    3       4       5       6       7       8      
    4       5       6       7       8      
    5       6       7       8      
    6       7       8      
    7       8      
   10      12      
   11      13      
   12      13      14      15      
   13      14      15      
   14      15      
   17      19      
   18      20      
   19      20      21      22      23      
   20      21      22      23      
   21      22      23      
   22      23      
   25      27      
   26      28      
   27      28      29      30      
   28      29      30      
   29      30      
   32      34      
   33      35      
   34      35      36      37      
   35      36      37      
   36      37      
   39      41      
   40      42      
   41      42      43      44      45      46      
   42      43      44      45      46      
   43      44      45      46      
   44      45      46      
   45      46      
   48      53       ; BB3-BB1n
   53      55       ; BB1-BB3
   55      62       ; BB3-BB1n
   62      64       ; BB1-BB3
   64      70       ; BB3-BB1n
   70      72       ; BB1-BB3
   72      77       ; BB3-BB1n
   77      79       ; BB1-BB3
   79      86       ; BB3-BB1n
   86      88       ; BB1-BB3
   47      49      
   48      50      
   49      50      51      52      
   50      51      52      
   51      52      
   54      56      
   55      57      
   56      57      58      59      60      61      
   57      58      59      60      61      
   58      59      60      61      
   59      60      61      
   60      61      
   63      65      
   64      66      
   65      66      67      68      69      
   66      67      68      69      
   67      68      69      
   68      69      
   71      73      
   72      74      
   73      74      75      76      
   74      75      76      
   75      76      
   78      80      
   79      81      
   80      81      82      83      84      85      
   81      82      83      84      85      
   82      83      84      85      
   83      84      85      
   84      85      
   87      89      
   88      90      
   89      90      91      92      
   90      91      92      
   91      92      

[ virtual_sites3 ]
    4       3       5       7    3   -4.0000    0.2800 ; SC2
    6       5       7       3    3    0.0000    0.2300 ; SC4
    8       3       7       5    3   -10.0000    0.2000 ; SC6
   14      12      13      15    2    0.4400    0.2100 ; SC3
   20      19      21      22    3   -11.0000    0.2660 ; SC2
   23      19      22      21    3    0.0000    0.1800 ; SC5
   29      27      28      30    2    0.5000    0.2300 ; SC3
   36      34      35      37    2    0.4400    0.2100 ; SC3
   42      41      43      45    3   -4.0000    0.2800 ; SC2
   44      43      45      41    3    0.0000    0.2300 ; SC4
   46      41      45      43    3   -10.0000    0.2000 ; SC6
   51      49      50      52    2    0.4400    0.2100 ; SC3
   57      56      58      60    3   -4.0000    0.2800 ; SC2
   59      58      60      56    3    0.0000    0.2300 ; SC4
   61      56      60      58    3   -10.0000    0.2000 ; SC6
   66      65      67      68    3   -11.0000    0.2660 ; SC2
   69      65      68      67    3    0.0000    0.1800 ; SC5
   75      73      74      76    2    0.5000    0.2300 ; SC3
   81      80      82      84    3   -4.0000    0.2800 ; SC2
   83      82      84      80    3    0.0000    0.2300 ; SC4
   85      80      84      82    3   -10.0000    0.2000 ; SC6
   91      89      90      92    2    0.4400    0.2100 ; SC3

#ifdef POSRES
#define POSRES_FC 1000.00
 [ position_restraints ]
      1    1    POSRES_FC    POSRES_FC    POSRES_FC
      2    1    POSRES_FC    POSRES_FC    POSRES_FC
      3    1    POSRES_FC    POSRES_FC    POSRES_FC
      9    1    POSRES_FC    POSRES_FC    POSRES_FC
     10    1    POSRES_FC    POSRES_FC    POSRES_FC
     11    1    POSRES_FC    POSRES_FC    POSRES_FC
     12    1    POSRES_FC    POSRES_FC    POSRES_FC
     16    1    POSRES_FC    POSRES_FC    POSRES_FC
     17    1    POSRES_FC    POSRES_FC    POSRES_FC
     18    1    POSRES_FC    POSRES_FC    POSRES_FC
     19    1    POSRES_FC    POSRES_FC    POSRES_FC
     24    1    POSRES_FC    POSRES_FC    POSRES_FC
     25    1    POSRES_FC    POSRES_FC    POSRES_FC
     26    1    POSRES_FC    POSRES_FC    POSRES_FC
     27    1    POSRES_FC    POSRES_FC    POSRES_FC
     31    1    POSRES_FC    POSRES_FC    POSRES_FC
     32    1    POSRES_FC    POSRES_FC    POSRES_FC
     33    1    POSRES_FC    POSRES_FC    POSRES_FC
     34    1    POSRES_FC    POSRES_FC    POSRES_FC
     38    1    POSRES_FC    POSRES_FC    POSRES_FC
     39    1    POSRES_FC    POSRES_FC    POSRES_FC
     40    1    POSRES_FC    POSRES_FC    POSRES_FC
     41    1    POSRES_FC    POSRES_FC    POSRES_FC
     47    1    POSRES_FC    POSRES_FC    POSRES_FC
     48    1    POSRES_FC    POSRES_FC    POSRES_FC
     49    1    POSRES_FC    POSRES_FC    POSRES_FC
     53    1    POSRES_FC    POSRES_FC    POSRES_FC
     54    1    POSRES_FC    POSRES_FC    POSRES_FC
     55    1    POSRES_FC    POSRES_FC    POSRES_FC
     56    1    POSRES_FC    POSRES_FC    POSRES_FC
     62    1    POSRES_FC    POSRES_FC    POSRES_FC
     63    1    POSRES_FC    POSRES_FC    POSRES_FC
     64    1    POSRES_FC    POSRES_FC    POSRES_FC
     65    1    POSRES_FC    POSRES_FC    POSRES_FC
     70    1    POSRES_FC    POSRES_FC    POSRES_FC
     71    1    POSRES_FC    POSRES_FC    POSRES_FC
     72    1    POSRES_FC    POSRES_FC    POSRES_FC
     73    1    POSRES_FC    POSRES_FC    POSRES_FC
     77    1    POSRES_FC    POSRES_FC    POSRES_FC
     78    1    POSRES_FC    POSRES_FC    POSRES_FC
     79    1    POSRES_FC    POSRES_FC    POSRES_FC
     80    1    POSRES_FC    POSRES_FC    POSRES_FC
     86    1    POSRES_FC    POSRES_FC    POSRES_FC
     87    1    POSRES_FC    POSRES_FC    POSRES_FC
     88    1    POSRES_FC    POSRES_FC    POSRES_FC
     89    1    POSRES_FC    POSRES_FC    POSRES_FC
#endif
