SEQRNA: Martini 3 RNA; rigidly translated, coordinates in nm
   92
    1G      BB2    1   2.576   1.000   1.702
    1G      BB3    2   2.689   1.183   1.614
    1G      SC1    3   2.422   1.236   1.511
    1G      SC2    4   2.582   1.463   1.466
    1G      SC3    5   2.708   1.707   1.411
    1G      SC4    6   2.486   1.671   1.394
    1G      SC5    7   2.314   1.621   1.387
    1G      SC6    8   2.352   1.409   1.452
    2C      BB1    9   2.646   1.192   2.017
    2C      BB2   10   2.867   1.451   1.983
    2C      BB3   11   2.864   1.666   1.895
    2C      SC1   12   2.567   1.594   1.776
    2C      SC2   13   2.648   1.840   1.754
    2C      SC3   14   2.480   1.800   1.717
    2C      SC4   15   2.284   1.703   1.682
    3A      BB1   16   2.823   1.650   2.298
    3A      BB2   17   2.870   1.988   2.264
    3A      BB3   18   2.750   2.167   2.176
    3A      SC1   19   2.593   1.946   2.075
    3A      SC2   20   2.450   2.183   2.027
    3A      SC3   21   2.274   2.275   1.972
    3A      SC4   22   2.158   1.964   1.937
    3A      SC5   23   2.409   1.953   2.015
    4U      BB1   24   2.725   2.131   2.579
    4U      BB2   25   2.581   2.440   2.545
    4U      BB3   26   2.384   2.527   2.458
    4U      SC1   27   2.327   2.227   2.338
    4U      SC2   28   2.135   2.402   2.315
    4U      SC3   29   2.110   2.230   2.280
    4U      SC4   30   2.142   2.056   2.260
    5C      BB1   31   2.382   2.483   2.860
    5C      BB2   32   2.094   2.666   2.826
    5C      BB3   33   1.881   2.632   2.738
    5C      SC1   34   1.994   2.349   2.619
    5C      SC2   35   1.740   2.394   2.597
    5C      SC3   36   1.803   2.233   2.560
    5C      SC4   37   1.926   2.053   2.526
    6G      BB1   38   1.903   2.594   3.141
    6G      BB2   39   1.562   2.592   3.107
    6G      BB3   40   1.401   2.449   3.019
    6G      SC1   41   1.643   2.323   2.916
    6G      SC2   42   1.425   2.150   2.871
    6G      SC3   43   1.235   1.952   2.816
    6G      SC4   44   1.458   1.923   2.799
    6G      SC5   45   1.637   1.923   2.792
    6G      SC6   46   1.661   2.137   2.857
    7C      BB2   47   1.152   1.207   2.439
    7C      BB3   48   1.095   1.415   2.527
    7C      SC1   49   1.400   1.428   2.646
    7C      SC2   50   1.254   1.641   2.668
    7C      SC3   51   1.427   1.650   2.705
    7C      SC4   52   1.641   1.612   2.740
    8G      BB1   53   1.139   1.410   2.124
    8G      BB2   54   1.000   1.721   2.158
    8G      BB3   55   1.065   1.927   2.246
    8G      SC1   56   1.279   1.759   2.350
    8G      SC2   57   1.346   2.028   2.395
    8G      SC3   58   1.449   2.284   2.449
    8G      SC4   59   1.567   2.092   2.466
    8G      SC5   60   1.641   1.929   2.474
    8G      SC6   61   1.456   1.819   2.408
    9A      BB1   62   1.099   1.900   1.843
    9A      BB2   63   1.151   2.237   1.877
    9A      BB3   64   1.316   2.375   1.965
    9A      SC1   65   1.404   2.119   2.066
    9A      SC2   66   1.608   2.305   2.114
    9A      SC3   67   1.803   2.343   2.169
    9A      SC4   68   1.826   2.012   2.204
    9A      SC5   69   1.583   2.073   2.126
   10U      BB1   70   1.330   2.333   1.562
   10U      BB2   71   1.555   2.589   1.596
   10U      BB3   72   1.770   2.616   1.684
   10U      SC1   73   1.739   2.313   1.803
   10U      SC2   74   1.973   2.426   1.826
   10U      SC3   75   1.948   2.254   1.861
   10U      SC4   76   1.868   2.096   1.881
   11G      BB1   77   1.759   2.574   1.281
   11G      BB2   78   2.087   2.667   1.315
   11G      BB3   79   2.281   2.574   1.403
   11G      SC1   80   2.084   2.385   1.507
   11G      SC2   81   2.342   2.281   1.552
   11G      SC3   82   2.580   2.144   1.606
   11G      SC4   83   2.374   2.054   1.623
   11G      SC5   84   2.202   2.003   1.631
   11G      SC6   85   2.119   2.202   1.565
   12C      BB1   86   2.249   2.544   1.000
   12C      BB2   87   2.576   2.445   1.034
   12C      BB3   88   2.689   2.262   1.122
   12C      SC1   89   2.401   2.162   1.241
   12C      SC2   90   2.602   2.000   1.263
   12C      SC3   91   2.438   1.943   1.300
   12C      SC4   92   2.221   1.918   1.335
   3.86960   3.66700   4.14140
