[ bonds ]
    1       3    1    0.4019   3168.3371 ; BB2-SC1
    2       3    1    0.2516   19181.0102 ; BB3-SC1
    2       4    1    0.3372   10531.0964 ; BB3-SC2
[ constraints ]
    3       5    1    0.5552 ; SC1-SC3
    5       7    1    0.3925 ; SC3-SC5
    7       3    1    0.4205 ; SC5-SC1
[ angles ]
    1       2       3   10   100.8272   56.7704 ; BB2-BB3-SC1
    2       1       9    1   55.2769   62.8746 ; BB3-BB2-BB1n
    2       3       5   10   82.0560   270.0886 ; BB3-SC1-SC3
    2       3       7   10   123.6997   249.7788 ; BB3-SC1-SC5
[ dihedrals ]
    0       1       2       3    9   123.8659   16.2076         1 ; BB1-BB2-BB3-SC1
    1       2       3       5    9   44.9685   33.7238         1 ; BB2-BB3-SC1-SC3
    1       2       3       5    9   65.3536    1.3401         2 ; BB2-BB3-SC1-SC3
    1       2       3       5    9   -62.6352    5.5825         3 ; BB2-BB3-SC1-SC3
    1       2       3       5    9   14.6528    6.6433         4 ; BB2-BB3-SC1-SC3
    1       2       3       5    9   54.8864    5.6988         5 ; BB2-BB3-SC1-SC3
    1       2       3       5    9   81.3808    3.5712         6 ; BB2-BB3-SC1-SC3
    1       2       3       7    9   36.7771   21.4901         1 ; BB2-BB3-SC1-SC5
    2       1       9      10    9   123.5237   33.6344         1 ; BB3-BB2-BB1n-BB2n
    2       1       9      10    9   -101.9504    4.3183         2 ; BB3-BB2-BB1n-BB2n
    2       1       9      10    9   -157.0745    4.7261         3 ; BB3-BB2-BB1n-BB2n
    2       1       9      10    9   -60.4051    6.1967         4 ; BB3-BB2-BB1n-BB2n
    2       1       9      10    9   39.1643    5.3114         5 ; BB3-BB2-BB1n-BB2n
    2       1       9      10    9   -177.3798    2.4000         6 ; BB3-BB2-BB1n-BB2n
    2       3       5       7    9   18.4453   93.9959         1 ; BB3-SC1-SC3-SC5
    2       3       7       5    9   -157.3612   71.6109         1 ; BB3-SC1-SC5-SC3
    3       2       1       9    9   -8.5063   62.5712         1 ; SC1-BB3-BB2-BB1n
[ virtual_sites3 ]
     4     3     5     7   3   -4.000    0.280 ; SC2
     6     5     7     3   3    0.000    0.230 ; SC4
     8     3     7     5   3  -10.000    0.200 ; SC6
[ pairs ]
[ exclusions ]
1 3
2 4
3 4 5 6 7 8 
4 5 6 7 8 
5 6 7 8 
6 7 8 
7 8 
