[ bonds ]
    1       3    1    0.4090   13986.5806 ; BB2-SC1
    2       3    1    0.2400     30000 ; BB3-SC1
    2       4    1    0.3225   10196.9863 ; BB3-SC2
[ constraints ]
    3       4    1    0.2370 ; SC1-SC2
    4       6    1    0.3459 ; SC2-SC4
    6       3    1    0.3153 ; SC4-SC1
[ angles ]
    1       2       3   10   105.1739   194.1906 ; BB2-BB3-SC1
    2       1       7    1   50.4189   192.9398 ; BB3-BB2-BB1n
    2       3       4   10   85.2273   263.4119 ; BB3-SC1-SC2
    2       3       6   10   153.7865   211.7081 ; BB3-SC1-SC4
[ dihedrals ]
    0       1       2       3    9   104.8950   72.3213         1 ; BB1-BB2-BB3-SC1
    1       2       3       4    9   61.6773   44.8971         1 ; BB2-BB3-SC1-SC2
    1       2       3       6    9   17.7967   42.2149         1 ; BB2-BB3-SC1-SC4
    2       1       7       8    9   169.2145   56.8279         1 ; BB3-BB2-BB1n-BB2n
    2       3       4       6    9   16.1810   104.0726         1 ; BB3-SC1-SC2-SC4
    2       3       6       4    9   -136.2088   24.2245         1 ; BB3-SC1-SC4-SC2
    3       2       1       7    9   156.0431   675.3225         1 ; SC1-BB3-BB2-BB1n
[ virtual_sites3 ]
     5     3     4     6   2    0.500    0.230 ; SC3
     7     3     6     4   3  -50.000    0.260 ; SC5
[ pairs ]
[ exclusions ]
1 3
2 4
3 4 5 6 7 
4 5 6 7
5 6 7
6 7
