[ bonds ]
    1       3    1    0.4686   3910.5191 ; BB2-SC1
    2       3    1    0.3258   21644.8594 ; BB3-SC1
    2       4    1    0.3204   8852.4346 ; BB3-SC2
[ constraints ]
    3       4    1    0.3143 ; SC1-SC2
    4       6    1    0.3839 ; SC2-SC4
    6       3    1    0.3167 ; SC4-SC1
[ angles ]
    1       2       3   10   102.9196   83.6705 ; BB2-BB3-SC1
    2       1       7    1   53.8485   99.7192 ; BB3-BB2-BB1n
    2       3       4   10   60.1022   467.4517 ; BB3-SC1-SC2
    2       3       6   10   131.9626   420.1788 ; BB3-SC1-SC4
[ dihedrals ]
    0       1       2       3    9   112.5838   15.4595         1 ; BB1-BB2-BB3-SC1
    1       2       3       4    9   58.3144   37.2927         1 ; BB2-BB3-SC1-SC2
    1       2       3       6    9   36.5759   34.4515         1 ; BB2-BB3-SC1-SC4
    2       1       7       8    9   137.2195   29.6031         1 ; BB3-BB2-BB1n-BB2n
    2       1       7       8    9   -70.9438   10.4535         2 ; BB3-BB2-BB1n-BB2n
    2       1       7       8    9   25.2523    3.8842         3 ; BB3-BB2-BB1n-BB2n
    2       1       7       8    9   64.6030    2.5675         4 ; BB3-BB2-BB1n-BB2n
    2       1       7       8    9   114.6070    1.8699         5 ; BB3-BB2-BB1n-BB2n
    2       1       7       8    9   -118.2305    1.7678         6 ; BB3-BB2-BB1n-BB2n
    2       3       4       6    9   14.9873   113.2946         1 ; BB3-SC1-SC2-SC4
    2       3       6       4    9   -161.9439   85.3722         1 ; BB3-SC1-SC4-SC2
    3       2       1       7    9   -0.6342   27.9701         1 ; SC1-BB3-BB2-BB1n
[ virtual_sites3 ]
     5     3     4     6   2    0.440    0.210 ; SC3
[ pairs ]
[ exclusions ]
1 3
2 4
3 4 5 6 
4 5 6 
5 6 
