[ bonds ]
    1       3    1    0.3971   3233.2629 ; BB2-SC1
    2       3    1    0.2510   21485.9561 ; BB3-SC1
    2       4    1    0.3390   13106.5531 ; BB3-SC2
[ constraints ]
    3       5    1    0.4745 ; SC1-SC3
    5       6    1    0.3205 ; SC3-SC4
    6       3    1    0.4602 ; SC4-SC1
[ angles ]
    1       2       3   10   98.9665   59.3569 ; BB2-BB3-SC1
    2       1       8    1   54.3895   74.0748 ; BB3-BB2-BB1n
    2       3       5   10   91.2221   331.7186 ; BB3-SC1-SC3
    2       3       6   10   128.2552   297.0931 ; BB3-SC1-SC4
[ dihedrals ]
    0       1       2       3    9   124.1838   33.9676         1 ; BB1-BB2-BB3-SC1
    1       2       3       5    9   45.3712   32.7413         1 ; BB2-BB3-SC1-SC3
    1       2       3       5    9   73.6584    5.0202         2 ; BB2-BB3-SC1-SC3
    1       2       3       5    9   -70.6838    2.8366         3 ; BB2-BB3-SC1-SC3
    1       2       3       5    9   -0.8362   10.2865         4 ; BB2-BB3-SC1-SC3
    1       2       3       5    9   36.7654   10.6051         5 ; BB2-BB3-SC1-SC3
    1       2       3       5    9   73.2332    5.3604         6 ; BB2-BB3-SC1-SC3
    1       2       3       6    9   35.5910   27.8763         1 ; BB2-BB3-SC1-SC4
    2       1       8       9    9   117.6924   33.8411         1 ; BB3-BB2-BB1n-BB2n
    2       1       8       9    9   -124.2244    1.9453         2 ; BB3-BB2-BB1n-BB2n
    2       1       8       9    9   -177.8491    4.7184         3 ; BB3-BB2-BB1n-BB2n
    2       1       8       9    9   -74.8896    6.6419         4 ; BB3-BB2-BB1n-BB2n
    2       1       8       9    9   30.3969    7.2002         5 ; BB3-BB2-BB1n-BB2n
    2       1       8       9    9   171.6458    2.9756         6 ; BB3-BB2-BB1n-BB2n
    2       3       5       6    9   18.1419   101.7138         1 ; BB3-SC1-SC3-SC4
    2       3       6       5    9   -155.9187   67.3960         1 ; BB3-SC1-SC4-SC3
    3       2       1       8    9   -5.0589   55.1599         1 ; SC1-BB3-BB2-BB1n
[ virtual_sites3 ]
     4     3     5     6   3  -11.000    0.266 ; SC2
     7     3     6     5   3    0.000    0.180 ; SC5
[ pairs ]
[ exclusions ]
1 3
2 4
3 4 5 6 7
4 5 6 7 
5 6 7 
6 7 


