[ atomtypes ]
TDA0  45.000   0.000  A  0.0  0.0
TDA1   0.000   0.000  A  0.0  0.0
TDA2  45.000   0.000  A  0.0  0.0
TDA3  45.000   0.000  A  0.0  0.0
TDA4   0.000   0.000  A  0.0  0.0
TDY0  36.000   0.000  A  0.0  0.0
TDY1  36.000   0.000  A  0.0  0.0
TDY2   0.000   0.000  A  0.0  0.0
TDY3  36.000   0.000  A  0.0  0.0
TDG0  51.000   0.000  A  0.0  0.0
TDG1   0.000   0.000  A  0.0  0.0
TDG2  51.000   0.000  A  0.0  0.0
TDG3   0.000   0.000  A  0.0  0.0
TDG4  51.000   0.000  A  0.0  0.0
TDG5   0.000   0.000  A  0.0  0.0
TDT0  42.000   0.000  A  0.0  0.0
TDT1  42.000   0.000  A  0.0  0.0
TDT2   0.000   0.000  A  0.0  0.0
TDT3  42.000   0.000  A  0.0  0.0
TDT4   0.000   0.000  A  0.0  0.0

[ nonbond_params ]
TDA0  TDA0  1  3.200000e-01  1.510000e+00
TDA0  TDA1  1  3.200000e-01  2.280000e+00
TDA0  TDA2  1  3.200000e-01  2.280000e+00
TDA0  TDA3  1  3.200000e-01  1.230000e+00
TDA0  TDA4  1  3.200000e-01  2.500000e+00
TDA0  TDG0  1  3.200000e-01  1.510000e+00
TDA0  TDG1  1  3.200000e-01  2.280000e+00
TDA0  TDG2  1  3.200000e-01  1.230000e+00
TDA0  TDG3  1  3.200000e-01  1.230000e+00
TDA0  TDG4  1  3.200000e-01  2.280000e+00
TDA0  TDG5  1  3.200000e-01  2.500000e+00
TDA0  TDT0  1  3.200000e-01  1.910000e+00
TDA0  TDT1  1  3.200000e-01  2.280000e+00
TDA0  TDT2  1  3.200000e-01  1.230000e+00
TDA0  TDT3  1  3.200000e-01  2.280000e+00
TDA0  TDY0  1  3.200000e-01  1.910000e+00
TDA0  TDY1  1  3.200000e-01  1.230000e+00
TDA0  TDY2  1  3.200000e-01  2.280000e+00
TDA0  TDY3  1  3.200000e-01  1.230000e+00
TDA1  TDA1  1  3.200000e-01  1.510000e+00
TDA1  TDA2  1  3.200000e-01  1.510000e+00
TDA1  TDA3  1  3.200000e-01  2.280000e+00
TDA1  TDA4  1  3.200000e-01  1.230000e+00
TDA1  TDG0  1  3.200000e-01  2.280000e+00
TDA1  TDG1  1  3.200000e-01  1.510000e+00
TDA1  TDG2  1  3.200000e-01  2.280000e+00
TDA1  TDG3  1  3.200000e-01  2.280000e+00
TDA1  TDG4  1  3.200000e-01  1.230000e+00
TDA1  TDG5  1  3.200000e-01  1.230000e+00
TDA1  TDT0  1  3.200000e-01  2.110000e+00
TDA1  TDT1  1  3.200000e-01  1.230000e+00
TDA1  TDT2  1  3.200000e-01  2.500000e+00
TDA1  TDT3  1  3.200000e-01  1.230000e+00
TDA1  TDY0  1  3.200000e-01  2.110000e+00
TDA1  TDY1  1  3.200000e-01  1.230000e+00
TDA1  TDY2  1  3.200000e-01  1.230000e+00
TDA1  TDY3  1  3.200000e-01  2.280000e+00
TDA2  TDA2  1  3.200000e-01  2.300000e+00
TDA2  TDA3  1  3.200000e-01  2.700000e+00
TDA2  TDA4  1  3.200000e-01  1.230000e+00
TDA2  TDG0  1  3.200000e-01  2.280000e+00
TDA2  TDG1  1  3.200000e-01  1.510000e+00
TDA2  TDG2  1  3.200000e-01  4.000000e+00
TDA2  TDG3  1  3.200000e-01  2.740000e+00
TDA2  TDG4  1  3.200000e-01  4.000000e+00
TDA2  TDG5  1  3.200000e-01  1.230000e+00
TDA2  TDT0  1  3.200000e-01  2.110000e+00
TDA2  TDT1  1  2.900000e-01  5.000000e+00
TDA2  TDT2  1  2.900000e-01  3.000000e+00
TDA2  TDT3  1  3.200000e-01  1.770000e+00
TDA2  TDY0  1  3.200000e-01  2.110000e+00
TDA2  TDY1  1  3.200000e-01  2.700000e+00
TDA2  TDY2  1  3.200000e-01  1.770000e+00
TDA2  TDY3  1  3.200000e-01  3.500000e+00
TDA3  TDA3  1  3.200000e-01  2.700000e+00
TDA3  TDA4  1  3.200000e-01  2.280000e+00
TDA3  TDG0  1  3.200000e-01  1.230000e+00
TDA3  TDG1  1  3.200000e-01  2.280000e+00
TDA3  TDG2  1  3.200000e-01  4.000000e+00
TDA3  TDG3  1  3.200000e-01  2.020000e+00
TDA3  TDG4  1  3.200000e-01  4.000000e+00
TDA3  TDG5  1  3.200000e-01  2.280000e+00
TDA3  TDT0  1  3.200000e-01  1.750000e+00
TDA3  TDT1  1  3.200000e-01  3.000000e+00
TDA3  TDT2  1  2.900000e-01  5.000000e+00
TDA3  TDT3  1  2.900000e-01  5.500000e+00
TDA3  TDY0  1  3.200000e-01  1.750000e+00
TDA3  TDY1  1  3.200000e-01  3.500000e+00
TDA3  TDY2  1  3.200000e-01  2.990000e+00
TDA3  TDY3  1  3.200000e-01  2.700000e+00
TDA4  TDA4  1  3.200000e-01  1.510000e+00
TDA4  TDG0  1  3.200000e-01  2.500000e+00
TDA4  TDG1  1  3.200000e-01  1.230000e+00
TDA4  TDG2  1  3.200000e-01  2.280000e+00
TDA4  TDG3  1  3.200000e-01  2.280000e+00
TDA4  TDG4  1  3.200000e-01  1.230000e+00
TDA4  TDG5  1  3.200000e-01  1.510000e+00
TDA4  TDT0  1  3.200000e-01  2.340000e+00
TDA4  TDT1  1  3.200000e-01  1.230000e+00
TDA4  TDT2  1  3.200000e-01  2.280000e+00
TDA4  TDT3  1  3.200000e-01  1.230000e+00
TDA4  TDY0  1  3.200000e-01  2.340000e+00
TDA4  TDY1  1  3.200000e-01  1.230000e+00
TDA4  TDY2  1  3.200000e-01  1.230000e+00
TDA4  TDY3  1  3.200000e-01  1.230000e+00
TDG0  TDG0  1  3.200000e-01  1.510000e+00
TDG0  TDG1  1  3.200000e-01  2.280000e+00
TDG0  TDG2  1  3.200000e-01  1.230000e+00
TDG0  TDG3  1  3.200000e-01  1.230000e+00
TDG0  TDG4  1  3.200000e-01  2.280000e+00
TDG0  TDG5  1  3.200000e-01  2.500000e+00
TDG0  TDT0  1  3.200000e-01  1.910000e+00
TDG0  TDT1  1  3.200000e-01  2.280000e+00
TDG0  TDT2  1  3.200000e-01  1.230000e+00
TDG0  TDT3  1  3.200000e-01  2.280000e+00
TDG0  TDY0  1  3.200000e-01  1.910000e+00
TDG0  TDY1  1  3.200000e-01  1.230000e+00
TDG0  TDY2  1  3.200000e-01  2.280000e+00
TDG0  TDY3  1  3.200000e-01  1.230000e+00
TDG1  TDG1  1  3.200000e-01  1.510000e+00
TDG1  TDG2  1  3.200000e-01  2.280000e+00
TDG1  TDG3  1  3.200000e-01  2.280000e+00
TDG1  TDG4  1  3.200000e-01  1.230000e+00
TDG1  TDG5  1  3.200000e-01  1.230000e+00
TDG1  TDT0  1  3.200000e-01  2.110000e+00
TDG1  TDT1  1  3.200000e-01  1.230000e+00
TDG1  TDT2  1  3.200000e-01  2.500000e+00
TDG1  TDT3  1  3.200000e-01  1.230000e+00
TDG1  TDY0  1  3.200000e-01  2.110000e+00
TDG1  TDY1  1  3.200000e-01  1.230000e+00
TDG1  TDY2  1  3.200000e-01  1.230000e+00
TDG1  TDY3  1  3.200000e-01  2.280000e+00
TDG2  TDG2  1  3.200000e-01  2.000000e+00
TDG2  TDG3  1  3.200000e-01  2.020000e+00
TDG2  TDG4  1  3.200000e-01  2.000000e+00
TDG2  TDG5  1  3.200000e-01  2.280000e+00
TDG2  TDT0  1  3.200000e-01  1.750000e+00
TDG2  TDT1  1  3.200000e-01  3.500000e+00
TDG2  TDT2  1  3.200000e-01  3.100000e+00
TDG2  TDT3  1  3.200000e-01  2.990000e+00
TDG2  TDY0  1  3.200000e-01  1.750000e+00
TDG2  TDY1  1  2.900000e-01  5.500000e+00
TDG2  TDY2  1  3.200000e-01  3.990000e+00
TDG2  TDY3  1  3.200000e-01  2.200000e+00
TDG3  TDG3  1  3.200000e-01  2.020000e+00
TDG3  TDG4  1  3.200000e-01  2.990000e+00
TDG3  TDG5  1  3.200000e-01  2.280000e+00
TDG3  TDT0  1  3.200000e-01  1.750000e+00
TDG3  TDT1  1  3.200000e-01  2.990000e+00
TDG3  TDT2  1  3.200000e-01  1.770000e+00
TDG3  TDT3  1  3.200000e-01  2.990000e+00
TDG3  TDY0  1  3.200000e-01  1.750000e+00
TDG3  TDY1  1  3.200000e-01  3.990000e+00
TDG3  TDY2  1  2.900000e-01  5.500000e+00
TDG3  TDY3  1  3.200000e-01  2.020000e+00
TDG4  TDG4  1  3.200000e-01  2.000000e+00
TDG4  TDG5  1  3.200000e-01  1.230000e+00
TDG4  TDT0  1  3.200000e-01  2.110000e+00
TDG4  TDT1  1  3.200000e-01  3.100000e+00
TDG4  TDT2  1  3.200000e-01  3.500000e+00
TDG4  TDT3  1  3.200000e-01  2.020000e+00
TDG4  TDY0  1  3.200000e-01  2.110000e+00
TDG4  TDY1  1  3.200000e-01  3.000000e+00
TDG4  TDY2  1  3.200000e-01  2.020000e+00
TDG4  TDY3  1  2.900000e-01  5.500000e+00
TDG5  TDG5  1  3.200000e-01  1.510000e+00
TDG5  TDT0  1  3.200000e-01  2.340000e+00
TDG5  TDT1  1  3.200000e-01  1.230000e+00
TDG5  TDT2  1  3.200000e-01  2.280000e+00
TDG5  TDT3  1  3.200000e-01  1.230000e+00
TDG5  TDY0  1  3.200000e-01  2.340000e+00
TDG5  TDY1  1  3.200000e-01  1.230000e+00
TDG5  TDY2  1  3.200000e-01  1.230000e+00
TDG5  TDY3  1  3.200000e-01  1.230000e+00
TDT0  TDT0  1  3.200000e-01  2.350000e+00
TDT0  TDT1  1  3.200000e-01  2.110000e+00
TDT0  TDT2  1  3.200000e-01  1.750000e+00
TDT0  TDT3  1  3.200000e-01  2.110000e+00
TDT0  TDY0  1  3.200000e-01  2.350000e+00
TDT0  TDY1  1  3.200000e-01  1.750000e+00
TDT0  TDY2  1  3.200000e-01  2.110000e+00
TDT0  TDY3  1  3.200000e-01  1.750000e+00
TDT1  TDT1  1  3.200000e-01  4.500000e+00
TDT1  TDT2  1  3.200000e-01  4.000000e+00
TDT1  TDT3  1  3.200000e-01  2.020000e+00
TDT1  TDY0  1  3.200000e-01  2.110000e+00
TDT1  TDY1  1  3.200000e-01  5.000000e+00
TDT1  TDY2  1  3.200000e-01  2.020000e+00
TDT1  TDY3  1  3.200000e-01  4.000000e+00
TDT2  TDT2  1  3.200000e-01  4.000000e+00
TDT2  TDT3  1  3.200000e-01  2.740000e+00
TDT2  TDY0  1  3.200000e-01  1.750000e+00
TDT2  TDY1  1  3.200000e-01  4.000000e+00
TDT2  TDY2  1  3.200000e-01  2.740000e+00
TDT2  TDY3  1  3.200000e-01  5.000000e+00
TDT3  TDT3  1  3.200000e-01  2.020000e+00
TDT3  TDY0  1  3.200000e-01  2.110000e+00
TDT3  TDY1  1  3.200000e-01  2.020000e+00
TDT3  TDY2  1  3.200000e-01  2.020000e+00
TDT3  TDY3  1  3.200000e-01  2.990000e+00
TDY0  TDY0  1  3.200000e-01  2.350000e+00
TDY0  TDY1  1  3.200000e-01  1.750000e+00
TDY0  TDY2  1  3.200000e-01  2.110000e+00
TDY0  TDY3  1  3.200000e-01  1.750000e+00
TDY1  TDY1  1  3.200000e-01  3.500000e+00
TDY1  TDY2  1  3.200000e-01  2.020000e+00
TDY1  TDY3  1  3.200000e-01  2.700000e+00
TDY2  TDY2  1  3.200000e-01  2.020000e+00
TDY2  TDY3  1  3.200000e-01  2.990000e+00
TDY3  TDY3  1  3.200000e-01  3.500000e+00
P6  TDA0  1  3.950000e-01  1.670000e+00
SP6  TDA0  1  3.780000e-01  1.450000e+00
TP6  TDA0  1  3.660000e-01  9.350000e-01
P5  TDA0  1  3.950000e-01  1.670000e+00
SP5  TDA0  1  3.780000e-01  1.450000e+00
TP5  TDA0  1  3.660000e-01  9.350000e-01
P4  TDA0  1  3.950000e-01  1.850000e+00
SP4  TDA0  1  3.660000e-01  1.600000e+00
TP4  TDA0  1  3.520000e-01  1.050000e+00
P3  TDA0  1  3.950000e-01  2.110000e+00
SP3  TDA0  1  3.650000e-01  1.750000e+00
TP3  TDA0  1  3.400000e-01  1.230000e+00
P2  TDA0  1  3.950000e-01  2.310000e+00
SP2  TDA0  1  3.650000e-01  1.910000e+00
TP2  TDA0  1  3.400000e-01  1.510000e+00
P1  TDA0  1  3.950000e-01  2.310000e+00
SP1  TDA0  1  3.650000e-01  1.910000e+00
TP1  TDA0  1  3.400000e-01  1.510000e+00
N6  TDA0  1  3.950000e-01  2.310000e+00
SN6  TDA0  1  3.650000e-01  1.910000e+00
TN6  TDA0  1  3.400000e-01  1.510000e+00
N5  TDA0  1  3.950000e-01  2.310000e+00
SN5  TDA0  1  3.650000e-01  1.910000e+00
TN5  TDA0  1  3.400000e-01  1.510000e+00
N4  TDA0  1  3.950000e-01  2.310000e+00
SN4  TDA0  1  3.650000e-01  1.910000e+00
TN4  TDA0  1  3.400000e-01  1.510000e+00
N3  TDA0  1  3.950000e-01  2.310000e+00
SN3  TDA0  1  3.650000e-01  1.910000e+00
TN3  TDA0  1  3.400000e-01  1.510000e+00
N2  TDA0  1  3.950000e-01  2.310000e+00
SN2  TDA0  1  3.650000e-01  1.910000e+00
TN2  TDA0  1  3.400000e-01  1.510000e+00
N1  TDA0  1  3.950000e-01  2.500000e+00
SN1  TDA0  1  3.650000e-01  2.110000e+00
TN1  TDA0  1  3.400000e-01  1.770000e+00
TDA0  C6  1  3.950000e-01  2.500000e+00
TDA0  SC6  1  3.650000e-01  2.110000e+00
TDA0  TC6  1  3.400000e-01  1.770000e+00
TDA0  C5  1  3.950000e-01  2.310000e+00
TDA0  SC5  1  3.650000e-01  1.910000e+00
TDA0  TC5  1  3.400000e-01  1.510000e+00
TDA0  C4  1  3.950000e-01  2.310000e+00
TDA0  SC4  1  3.650000e-01  1.910000e+00
TDA0  TC4  1  3.400000e-01  1.510000e+00
TDA0  C3  1  3.950000e-01  2.110000e+00
TDA0  SC3  1  3.650000e-01  1.750000e+00
TDA0  TC3  1  3.400000e-01  1.230000e+00
TDA0  C2  1  3.950000e-01  1.850000e+00
TDA0  SC2  1  3.660000e-01  1.600000e+00
TDA0  TC2  1  3.520000e-01  1.050000e+00
TDA0  C1  1  3.950000e-01  1.670000e+00
TDA0  SC1  1  3.780000e-01  1.450000e+00
TDA0  TC1  1  3.660000e-01  9.350000e-01
TDA0  X4  1  3.950000e-01  2.310000e+00
TDA0  SX4  1  3.650000e-01  1.910000e+00
TDA0  TX4  1  3.400000e-01  1.510000e+00
TDA0  X3  1  3.950000e-01  2.310000e+00
TDA0  SX3  1  3.650000e-01  1.910000e+00
TDA0  TX3  1  3.400000e-01  1.510000e+00
TDA0  X2  1  3.950000e-01  2.110000e+00
TDA0  SX2  1  3.650000e-01  1.750000e+00
TDA0  TX2  1  3.400000e-01  1.230000e+00
TDA0  X1  1  3.950000e-01  2.110000e+00
TDA0  SX1  1  3.650000e-01  1.750000e+00
TDA0  TX1  1  3.400000e-01  1.230000e+00
SP6d  TDA0  1  3.780000e-01  1.450000e+00
SP5d  TDA0  1  3.780000e-01  1.450000e+00
SP4d  TDA0  1  3.660000e-01  1.600000e+00
SP3d  TDA0  1  3.650000e-01  1.750000e+00
SP2d  TDA0  1  3.650000e-01  1.750000e+00
SP1d  TDA0  1  3.650000e-01  1.750000e+00
SN6d  TDA0  1  3.650000e-01  1.750000e+00
SN5d  TDA0  1  3.650000e-01  1.750000e+00
SN4d  TDA0  1  3.650000e-01  1.750000e+00
SN3d  TDA0  1  3.650000e-01  1.750000e+00
SN2d  TDA0  1  3.650000e-01  1.750000e+00
SN1d  TDA0  1  3.650000e-01  1.910000e+00
SP6a  TDA0  1  3.780000e-01  1.450000e+00
SP5a  TDA0  1  3.780000e-01  1.450000e+00
SP4a  TDA0  1  3.660000e-01  1.600000e+00
SP3a  TDA0  1  3.650000e-01  1.750000e+00
SP2a  TDA0  1  3.650000e-01  2.110000e+00
SP1a  TDA0  1  3.650000e-01  2.110000e+00
SN6a  TDA0  1  3.650000e-01  2.110000e+00
SN5a  TDA0  1  3.650000e-01  2.110000e+00
SN4a  TDA0  1  3.650000e-01  2.110000e+00
SN3a  TDA0  1  3.650000e-01  2.110000e+00
SN2a  TDA0  1  3.650000e-01  2.110000e+00
SP6q  TDA0  1  3.650000e-01  1.750000e+00
SP5q  TDA0  1  3.650000e-01  1.750000e+00
SP4q  TDA0  1  3.650000e-01  1.910000e+00
SP3q  TDA0  1  3.650000e-01  2.110000e+00
SP2q  TDA0  1  3.650000e-01  2.340000e+00
SP1q  TDA0  1  3.650000e-01  2.340000e+00
SN6q  TDA0  1  3.650000e-01  2.340000e+00
SN5q  TDA0  1  3.650000e-01  2.340000e+00
SN4q  TDA0  1  3.650000e-01  2.340000e+00
SN3q  TDA0  1  3.650000e-01  2.340000e+00
SN2q  TDA0  1  3.650000e-01  2.340000e+00
SN1q  TDA0  1  3.650000e-01  2.570000e+00
SP6h  TDA0  1  3.780000e-01  1.450000e+00
SP5h  TDA0  1  3.780000e-01  1.450000e+00
SP4h  TDA0  1  3.660000e-01  1.600000e+00
SP3h  TDA0  1  3.650000e-01  1.750000e+00
SP2h  TDA0  1  3.650000e-01  1.910000e+00
SP1h  TDA0  1  3.650000e-01  1.910000e+00
SN6h  TDA0  1  3.650000e-01  1.910000e+00
SN5h  TDA0  1  3.650000e-01  1.910000e+00
SN4h  TDA0  1  3.650000e-01  1.910000e+00
SN3h  TDA0  1  3.650000e-01  1.910000e+00
SN2h  TDA0  1  3.650000e-01  1.910000e+00
SN1h  TDA0  1  3.650000e-01  2.110000e+00
SP6r  TDA0  1  3.780000e-01  1.450000e+00
SP5r  TDA0  1  3.780000e-01  1.450000e+00
SP4r  TDA0  1  3.660000e-01  1.600000e+00
SP3r  TDA0  1  3.650000e-01  1.750000e+00
SP2r  TDA0  1  3.650000e-01  1.910000e+00
SP1r  TDA0  1  3.650000e-01  1.910000e+00
SN6r  TDA0  1  3.650000e-01  1.910000e+00
SN5r  TDA0  1  3.650000e-01  1.910000e+00
SN4r  TDA0  1  3.650000e-01  1.910000e+00
SN3r  TDA0  1  3.650000e-01  1.910000e+00
SN2r  TDA0  1  3.650000e-01  1.910000e+00
SN1r  TDA0  1  3.650000e-01  2.110000e+00
SP6dq  TDA0  1  3.650000e-01  1.750000e+00
SP5dq  TDA0  1  3.650000e-01  1.750000e+00
SP4dq  TDA0  1  3.650000e-01  1.910000e+00
SP3dq  TDA0  1  3.650000e-01  2.110000e+00
SP2dq  TDA0  1  3.650000e-01  2.110000e+00
SP1dq  TDA0  1  3.650000e-01  2.110000e+00
SN6dq  TDA0  1  3.650000e-01  2.110000e+00
SN5dq  TDA0  1  3.650000e-01  2.110000e+00
SN4dq  TDA0  1  3.650000e-01  2.110000e+00
SN3dq  TDA0  1  3.650000e-01  2.110000e+00
SN2dq  TDA0  1  3.650000e-01  2.110000e+00
SN2aq  TDA0  1  3.650000e-01  2.570000e+00
SN3aq  TDA0  1  3.650000e-01  2.570000e+00
SN4aq  TDA0  1  3.650000e-01  2.570000e+00
SN5aq  TDA0  1  3.650000e-01  2.570000e+00
SN6aq  TDA0  1  3.650000e-01  2.570000e+00
SP1aq  TDA0  1  3.650000e-01  2.570000e+00
SP2aq  TDA0  1  3.650000e-01  2.570000e+00
SP3aq  TDA0  1  3.650000e-01  2.110000e+00
SP4aq  TDA0  1  3.650000e-01  1.910000e+00
SP5aq  TDA0  1  3.650000e-01  1.750000e+00
SP6aq  TDA0  1  3.650000e-01  1.750000e+00
SP6dh  TDA0  1  3.780000e-01  1.450000e+00
SP5dh  TDA0  1  3.780000e-01  1.450000e+00
SP4dh  TDA0  1  3.660000e-01  1.600000e+00
SP3dh  TDA0  1  3.650000e-01  1.750000e+00
SP2dh  TDA0  1  3.650000e-01  1.750000e+00
SP1dh  TDA0  1  3.650000e-01  1.750000e+00
SN6dh  TDA0  1  3.650000e-01  1.750000e+00
SN5dh  TDA0  1  3.650000e-01  1.750000e+00
SN4dh  TDA0  1  3.650000e-01  1.750000e+00
SN3dh  TDA0  1  3.650000e-01  1.750000e+00
SN2dh  TDA0  1  3.650000e-01  1.750000e+00
SN2ah  TDA0  1  3.650000e-01  2.110000e+00
SN3ah  TDA0  1  3.650000e-01  2.110000e+00
SN4ah  TDA0  1  3.650000e-01  2.110000e+00
SN5ah  TDA0  1  3.650000e-01  2.110000e+00
SN6ah  TDA0  1  3.650000e-01  2.110000e+00
SP1ah  TDA0  1  3.650000e-01  2.110000e+00
SP2ah  TDA0  1  3.650000e-01  2.110000e+00
SP3ah  TDA0  1  3.650000e-01  1.750000e+00
SP4ah  TDA0  1  3.660000e-01  1.600000e+00
SP5ah  TDA0  1  3.780000e-01  1.450000e+00
SP6ah  TDA0  1  3.780000e-01  1.450000e+00
SP6dr  TDA0  1  3.780000e-01  1.450000e+00
SP5dr  TDA0  1  3.780000e-01  1.450000e+00
SP4dr  TDA0  1  3.660000e-01  1.600000e+00
SP3dr  TDA0  1  3.650000e-01  1.750000e+00
SP2dr  TDA0  1  3.650000e-01  1.750000e+00
SP1dr  TDA0  1  3.650000e-01  1.750000e+00
SN6dr  TDA0  1  3.650000e-01  1.750000e+00
SN5dr  TDA0  1  3.650000e-01  1.750000e+00
SN4dr  TDA0  1  3.650000e-01  1.750000e+00
SN3dr  TDA0  1  3.650000e-01  1.750000e+00
SN2dr  TDA0  1  3.650000e-01  1.750000e+00
SN2ar  TDA0  1  3.650000e-01  2.110000e+00
SN3ar  TDA0  1  3.650000e-01  2.110000e+00
SN4ar  TDA0  1  3.650000e-01  2.110000e+00
SN5ar  TDA0  1  3.650000e-01  2.110000e+00
SN6ar  TDA0  1  3.650000e-01  2.110000e+00
SP1ar  TDA0  1  3.650000e-01  2.110000e+00
SP2ar  TDA0  1  3.650000e-01  2.110000e+00
SP3ar  TDA0  1  3.650000e-01  1.750000e+00
SP4ar  TDA0  1  3.660000e-01  1.600000e+00
SP5ar  TDA0  1  3.780000e-01  1.450000e+00
SP6ar  TDA0  1  3.780000e-01  1.450000e+00
TDA0  SN1dq  1  3.650000e-01  2.340000e+00
TDA0  SX1eq  1  3.650000e-01  2.340000e+00
TDA0  SX2eq  1  3.650000e-01  2.340000e+00
TDA0  SX3eq  1  3.650000e-01  2.570000e+00
TDA0  SX4eq  1  3.650000e-01  2.570000e+00
TDA0  SC1eq  1  3.650000e-01  1.910000e+00
TDA0  SC2eq  1  3.650000e-01  2.110000e+00
TDA0  SC3eq  1  3.650000e-01  2.340000e+00
TDA0  SC4eq  1  3.650000e-01  2.570000e+00
TDA0  SC5eq  1  3.650000e-01  2.570000e+00
TDA0  SC6eq  1  3.650000e-01  2.830000e+00
TDA0  SX1vq  1  3.650000e-01  1.910000e+00
TDA0  SX2vq  1  3.650000e-01  1.910000e+00
TDA0  SX3vq  1  3.650000e-01  2.110000e+00
TDA0  SX4vq  1  3.650000e-01  2.110000e+00
TDA0  SC1vq  1  3.660000e-01  1.600000e+00
TDA0  SC2vq  1  3.650000e-01  1.750000e+00
TDA0  SC3vq  1  3.650000e-01  1.910000e+00
TDA0  SC4vq  1  3.650000e-01  2.110000e+00
TDA0  SC5vq  1  3.650000e-01  2.110000e+00
TDA0  SC6vq  1  3.650000e-01  2.340000e+00
TDA0  SN1aq  1  3.650000e-01  2.830000e+00
TDA0  SN1dh  1  3.650000e-01  1.910000e+00
TDA0  SX1eh  1  3.650000e-01  1.910000e+00
TDA0  SX2eh  1  3.650000e-01  1.910000e+00
TDA0  SX3eh  1  3.650000e-01  2.110000e+00
TDA0  SX4eh  1  3.650000e-01  2.110000e+00
TDA0  SC1eh  1  3.660000e-01  1.600000e+00
TDA0  SC2eh  1  3.650000e-01  1.750000e+00
TDA0  SC3eh  1  3.650000e-01  1.910000e+00
TDA0  SC4eh  1  3.650000e-01  2.110000e+00
TDA0  SC5eh  1  3.650000e-01  2.110000e+00
TDA0  SC6eh  1  3.650000e-01  2.340000e+00
TDA0  SX1vh  1  3.660000e-01  1.600000e+00
TDA0  SX2vh  1  3.660000e-01  1.600000e+00
TDA0  SX3vh  1  3.650000e-01  1.750000e+00
TDA0  SX4vh  1  3.650000e-01  1.750000e+00
TDA0  SC1vh  1  3.940000e-01  1.290000e+00
TDA0  SC2vh  1  3.780000e-01  1.450000e+00
TDA0  SC3vh  1  3.660000e-01  1.600000e+00
TDA0  SC4vh  1  3.650000e-01  1.750000e+00
TDA0  SC5vh  1  3.650000e-01  1.750000e+00
TDA0  SC6vh  1  3.650000e-01  1.910000e+00
TDA0  SN1ah  1  3.650000e-01  2.340000e+00
TDA0  SN1dr  1  3.650000e-01  1.910000e+00
TDA0  SX1er  1  3.650000e-01  1.910000e+00
TDA0  SX2er  1  3.650000e-01  1.910000e+00
TDA0  SX3er  1  3.650000e-01  2.110000e+00
TDA0  SX4er  1  3.650000e-01  2.110000e+00
TDA0  SC1er  1  3.660000e-01  1.600000e+00
TDA0  SC2er  1  3.650000e-01  1.750000e+00
TDA0  SC3er  1  3.650000e-01  1.910000e+00
TDA0  SC4er  1  3.650000e-01  2.110000e+00
TDA0  SC5er  1  3.650000e-01  2.110000e+00
TDA0  SC6er  1  3.650000e-01  2.340000e+00
TDA0  SX1vr  1  3.660000e-01  1.600000e+00
TDA0  SX2vr  1  3.660000e-01  1.600000e+00
TDA0  SX3vr  1  3.650000e-01  1.750000e+00
TDA0  SX4vr  1  3.650000e-01  1.750000e+00
TDA0  SC1vr  1  3.940000e-01  1.290000e+00
TDA0  SC2vr  1  3.780000e-01  1.450000e+00
TDA0  SC3vr  1  3.660000e-01  1.600000e+00
TDA0  SC4vr  1  3.650000e-01  1.750000e+00
TDA0  SC5vr  1  3.650000e-01  1.750000e+00
TDA0  SC6vr  1  3.650000e-01  1.910000e+00
TDA0  SN1ar  1  3.650000e-01  2.340000e+00
TDA0  SN1a  1  3.650000e-01  2.340000e+00
TDA0  SC6e  1  3.650000e-01  2.340000e+00
TDA0  SC5e  1  3.650000e-01  2.110000e+00
TDA0  SC4e  1  3.650000e-01  2.110000e+00
TDA0  SC3e  1  3.650000e-01  1.910000e+00
TDA0  SC2e  1  3.650000e-01  1.750000e+00
TDA0  SC1e  1  3.660000e-01  1.600000e+00
TDA0  SX4e  1  3.650000e-01  2.110000e+00
TDA0  SX3e  1  3.650000e-01  2.110000e+00
TDA0  SX2e  1  3.650000e-01  1.910000e+00
TDA0  SX1e  1  3.650000e-01  1.910000e+00
TDA0  SC6v  1  3.650000e-01  1.910000e+00
TDA0  SC5v  1  3.650000e-01  1.750000e+00
TDA0  SC4v  1  3.650000e-01  1.750000e+00
TDA0  SC3v  1  3.660000e-01  1.600000e+00
TDA0  SC2v  1  3.780000e-01  1.450000e+00
TDA0  SC1v  1  3.940000e-01  1.290000e+00
TDA0  SX4v  1  3.650000e-01  1.750000e+00
TDA0  SX3v  1  3.650000e-01  1.750000e+00
TDA0  SX2v  1  3.660000e-01  1.600000e+00
TDA0  SX1v  1  3.660000e-01  1.600000e+00
TDA0  SC6q  1  3.650000e-01  2.570000e+00
TDA0  SC5q  1  3.650000e-01  2.340000e+00
TDA0  SC4q  1  3.650000e-01  2.340000e+00
TDA0  SC3q  1  3.650000e-01  2.110000e+00
TDA0  SC2q  1  3.650000e-01  1.910000e+00
TDA0  SC1q  1  3.650000e-01  1.750000e+00
TDA0  SX4q  1  3.650000e-01  2.340000e+00
TDA0  SX3q  1  3.650000e-01  2.340000e+00
TDA0  SX2q  1  3.650000e-01  2.110000e+00
TDA0  SX1q  1  3.650000e-01  2.110000e+00
TDA0  SC6h  1  3.650000e-01  2.110000e+00
TDA0  SC5h  1  3.650000e-01  1.910000e+00
TDA0  SC4h  1  3.650000e-01  1.910000e+00
TDA0  SC3h  1  3.650000e-01  1.750000e+00
TDA0  SC2h  1  3.660000e-01  1.600000e+00
TDA0  SC1h  1  3.780000e-01  1.450000e+00
TDA0  SX4h  1  3.650000e-01  1.910000e+00
TDA0  SX3h  1  3.650000e-01  1.910000e+00
TDA0  SX2h  1  3.650000e-01  1.750000e+00
TDA0  SX1h  1  3.650000e-01  1.750000e+00
TDA0  SC6r  1  3.650000e-01  2.110000e+00
TDA0  SC5r  1  3.650000e-01  1.910000e+00
TDA0  SC4r  1  3.650000e-01  1.910000e+00
TDA0  SC3r  1  3.650000e-01  1.750000e+00
TDA0  SC2r  1  3.660000e-01  1.600000e+00
TDA0  SC1r  1  3.780000e-01  1.450000e+00
TDA0  SX4r  1  3.650000e-01  1.910000e+00
TDA0  SX3r  1  3.650000e-01  1.910000e+00
TDA0  SX2r  1  3.650000e-01  1.750000e+00
TDA0  SX1r  1  3.650000e-01  1.750000e+00
P6d  TDA0  1  3.950000e-01  1.670000e+00
P5d  TDA0  1  3.950000e-01  1.670000e+00
P4d  TDA0  1  3.950000e-01  1.850000e+00
P3d  TDA0  1  3.950000e-01  2.110000e+00
P2d  TDA0  1  3.950000e-01  2.110000e+00
P1d  TDA0  1  3.950000e-01  2.110000e+00
N6d  TDA0  1  3.950000e-01  2.110000e+00
N5d  TDA0  1  3.950000e-01  2.110000e+00
N4d  TDA0  1  3.950000e-01  2.110000e+00
N3d  TDA0  1  3.950000e-01  2.110000e+00
N2d  TDA0  1  3.950000e-01  2.110000e+00
N1d  TDA0  1  3.950000e-01  2.310000e+00
P6a  TDA0  1  3.950000e-01  1.670000e+00
P5a  TDA0  1  3.950000e-01  1.670000e+00
P4a  TDA0  1  3.950000e-01  1.850000e+00
P3a  TDA0  1  3.950000e-01  2.110000e+00
P2a  TDA0  1  3.950000e-01  2.500000e+00
P1a  TDA0  1  3.950000e-01  2.500000e+00
N6a  TDA0  1  3.950000e-01  2.500000e+00
N5a  TDA0  1  3.950000e-01  2.500000e+00
N4a  TDA0  1  3.950000e-01  2.500000e+00
N3a  TDA0  1  3.950000e-01  2.500000e+00
N2a  TDA0  1  3.950000e-01  2.500000e+00
P6q  TDA0  1  3.950000e-01  2.110000e+00
P5q  TDA0  1  3.950000e-01  2.110000e+00
P4q  TDA0  1  3.950000e-01  2.310000e+00
P3q  TDA0  1  3.950000e-01  2.500000e+00
P2q  TDA0  1  3.950000e-01  2.700000e+00
P1q  TDA0  1  3.950000e-01  2.700000e+00
N6q  TDA0  1  3.950000e-01  2.700000e+00
N5q  TDA0  1  3.950000e-01  2.700000e+00
N4q  TDA0  1  3.950000e-01  2.700000e+00
N3q  TDA0  1  3.950000e-01  2.700000e+00
N2q  TDA0  1  3.950000e-01  2.700000e+00
N1q  TDA0  1  3.950000e-01  2.940000e+00
P6dq  TDA0  1  3.950000e-01  2.110000e+00
P5dq  TDA0  1  3.950000e-01  2.110000e+00
P4dq  TDA0  1  3.950000e-01  2.310000e+00
P3dq  TDA0  1  3.950000e-01  2.500000e+00
P2dq  TDA0  1  3.950000e-01  2.500000e+00
P1dq  TDA0  1  3.950000e-01  2.500000e+00
N6dq  TDA0  1  3.950000e-01  2.500000e+00
N5dq  TDA0  1  3.950000e-01  2.500000e+00
N4dq  TDA0  1  3.950000e-01  2.500000e+00
N3dq  TDA0  1  3.950000e-01  2.500000e+00
N2dq  TDA0  1  3.950000e-01  2.500000e+00
N2aq  TDA0  1  3.950000e-01  2.940000e+00
N3aq  TDA0  1  3.950000e-01  2.940000e+00
N4aq  TDA0  1  3.950000e-01  2.940000e+00
N5aq  TDA0  1  3.950000e-01  2.940000e+00
N6aq  TDA0  1  3.950000e-01  2.940000e+00
P1aq  TDA0  1  3.950000e-01  2.940000e+00
P2aq  TDA0  1  3.950000e-01  2.940000e+00
P3aq  TDA0  1  3.950000e-01  2.500000e+00
P4aq  TDA0  1  3.950000e-01  2.310000e+00
P5aq  TDA0  1  3.950000e-01  2.110000e+00
P6aq  TDA0  1  3.950000e-01  2.110000e+00
P6h  TDA0  1  3.950000e-01  1.670000e+00
P5h  TDA0  1  3.950000e-01  1.670000e+00
P4h  TDA0  1  3.950000e-01  1.850000e+00
P3h  TDA0  1  3.950000e-01  2.110000e+00
P2h  TDA0  1  3.950000e-01  2.310000e+00
P1h  TDA0  1  3.950000e-01  2.310000e+00
N6h  TDA0  1  3.950000e-01  2.310000e+00
N5h  TDA0  1  3.950000e-01  2.310000e+00
N4h  TDA0  1  3.950000e-01  2.310000e+00
N3h  TDA0  1  3.950000e-01  2.310000e+00
N2h  TDA0  1  3.950000e-01  2.310000e+00
N1h  TDA0  1  3.950000e-01  2.500000e+00
P6dh  TDA0  1  3.950000e-01  1.670000e+00
P5dh  TDA0  1  3.950000e-01  1.670000e+00
P4dh  TDA0  1  3.950000e-01  1.850000e+00
P3dh  TDA0  1  3.950000e-01  2.110000e+00
P2dh  TDA0  1  3.950000e-01  2.110000e+00
P1dh  TDA0  1  3.950000e-01  2.110000e+00
N6dh  TDA0  1  3.950000e-01  2.110000e+00
N5dh  TDA0  1  3.950000e-01  2.110000e+00
N4dh  TDA0  1  3.950000e-01  2.110000e+00
N3dh  TDA0  1  3.950000e-01  2.110000e+00
N2dh  TDA0  1  3.950000e-01  2.110000e+00
N2ah  TDA0  1  3.950000e-01  2.500000e+00
N3ah  TDA0  1  3.950000e-01  2.500000e+00
N4ah  TDA0  1  3.950000e-01  2.500000e+00
N5ah  TDA0  1  3.950000e-01  2.500000e+00
N6ah  TDA0  1  3.950000e-01  2.500000e+00
P1ah  TDA0  1  3.950000e-01  2.500000e+00
P2ah  TDA0  1  3.950000e-01  2.500000e+00
P3ah  TDA0  1  3.950000e-01  2.110000e+00
P4ah  TDA0  1  3.950000e-01  1.850000e+00
P5ah  TDA0  1  3.950000e-01  1.670000e+00
P6ah  TDA0  1  3.950000e-01  1.670000e+00
P6r  TDA0  1  3.950000e-01  1.670000e+00
P5r  TDA0  1  3.950000e-01  1.670000e+00
P4r  TDA0  1  3.950000e-01  1.850000e+00
P3r  TDA0  1  3.950000e-01  2.110000e+00
P2r  TDA0  1  3.950000e-01  2.310000e+00
P1r  TDA0  1  3.950000e-01  2.310000e+00
N6r  TDA0  1  3.950000e-01  2.310000e+00
N5r  TDA0  1  3.950000e-01  2.310000e+00
N4r  TDA0  1  3.950000e-01  2.310000e+00
N3r  TDA0  1  3.950000e-01  2.310000e+00
N2r  TDA0  1  3.950000e-01  2.310000e+00
N1r  TDA0  1  3.950000e-01  2.500000e+00
P6dr  TDA0  1  3.950000e-01  1.670000e+00
P5dr  TDA0  1  3.950000e-01  1.670000e+00
P4dr  TDA0  1  3.950000e-01  1.850000e+00
P3dr  TDA0  1  3.950000e-01  2.110000e+00
P2dr  TDA0  1  3.950000e-01  2.110000e+00
P1dr  TDA0  1  3.950000e-01  2.110000e+00
N6dr  TDA0  1  3.950000e-01  2.110000e+00
N5dr  TDA0  1  3.950000e-01  2.110000e+00
N4dr  TDA0  1  3.950000e-01  2.110000e+00
N3dr  TDA0  1  3.950000e-01  2.110000e+00
N2dr  TDA0  1  3.950000e-01  2.110000e+00
N2ar  TDA0  1  3.950000e-01  2.500000e+00
N3ar  TDA0  1  3.950000e-01  2.500000e+00
N4ar  TDA0  1  3.950000e-01  2.500000e+00
N5ar  TDA0  1  3.950000e-01  2.500000e+00
N6ar  TDA0  1  3.950000e-01  2.500000e+00
P1ar  TDA0  1  3.950000e-01  2.500000e+00
P2ar  TDA0  1  3.950000e-01  2.500000e+00
P3ar  TDA0  1  3.950000e-01  2.110000e+00
P4ar  TDA0  1  3.950000e-01  1.850000e+00
P5ar  TDA0  1  3.950000e-01  1.670000e+00
P6ar  TDA0  1  3.950000e-01  1.670000e+00
TDA0  N1a  1  3.950000e-01  2.700000e+00
TDA0  C6e  1  3.950000e-01  2.700000e+00
TDA0  C5e  1  3.950000e-01  2.500000e+00
TDA0  C4e  1  3.950000e-01  2.500000e+00
TDA0  C3e  1  3.950000e-01  2.310000e+00
TDA0  C2e  1  3.950000e-01  2.110000e+00
TDA0  C1e  1  3.950000e-01  1.850000e+00
TDA0  X4e  1  3.950000e-01  2.500000e+00
TDA0  X3e  1  3.950000e-01  2.500000e+00
TDA0  X2e  1  3.950000e-01  2.310000e+00
TDA0  X1e  1  3.950000e-01  2.310000e+00
TDA0  C6v  1  3.950000e-01  2.310000e+00
TDA0  C5v  1  3.950000e-01  2.110000e+00
TDA0  C4v  1  3.950000e-01  2.110000e+00
TDA0  C3v  1  3.950000e-01  1.850000e+00
TDA0  C2v  1  3.950000e-01  1.670000e+00
TDA0  C1v  1  3.980000e-01  1.450000e+00
TDA0  X4v  1  3.950000e-01  2.110000e+00
TDA0  X3v  1  3.950000e-01  2.110000e+00
TDA0  X2v  1  3.950000e-01  1.850000e+00
TDA0  X1v  1  3.950000e-01  1.850000e+00
TDA0  C6q  1  3.950000e-01  2.940000e+00
TDA0  C5q  1  3.950000e-01  2.700000e+00
TDA0  C4q  1  3.950000e-01  2.700000e+00
TDA0  C3q  1  3.950000e-01  2.500000e+00
TDA0  C2q  1  3.950000e-01  2.310000e+00
TDA0  C1q  1  3.950000e-01  2.110000e+00
TDA0  X4q  1  3.950000e-01  2.700000e+00
TDA0  X3q  1  3.950000e-01  2.700000e+00
TDA0  X2q  1  3.950000e-01  2.500000e+00
TDA0  X1q  1  3.950000e-01  2.500000e+00
TDA0  N1dq  1  3.950000e-01  2.700000e+00
TDA0  X1eq  1  3.950000e-01  2.700000e+00
TDA0  X2eq  1  3.950000e-01  2.700000e+00
TDA0  X3eq  1  3.950000e-01  2.940000e+00
TDA0  X4eq  1  3.950000e-01  2.940000e+00
TDA0  C1eq  1  3.950000e-01  2.310000e+00
TDA0  C2eq  1  3.950000e-01  2.500000e+00
TDA0  C3eq  1  3.950000e-01  2.700000e+00
TDA0  C4eq  1  3.950000e-01  2.940000e+00
TDA0  C5eq  1  3.950000e-01  2.940000e+00
TDA0  C6eq  1  3.950000e-01  3.190000e+00
TDA0  X1vq  1  3.950000e-01  2.310000e+00
TDA0  X2vq  1  3.950000e-01  2.310000e+00
TDA0  X3vq  1  3.950000e-01  2.500000e+00
TDA0  X4vq  1  3.950000e-01  2.500000e+00
TDA0  C1vq  1  3.950000e-01  1.850000e+00
TDA0  C2vq  1  3.950000e-01  2.110000e+00
TDA0  C3vq  1  3.950000e-01  2.310000e+00
TDA0  C4vq  1  3.950000e-01  2.500000e+00
TDA0  C5vq  1  3.950000e-01  2.500000e+00
TDA0  C6vq  1  3.950000e-01  2.700000e+00
TDA0  N1aq  1  3.950000e-01  3.190000e+00
TDA0  C6h  1  3.950000e-01  2.500000e+00
TDA0  C5h  1  3.950000e-01  2.310000e+00
TDA0  C4h  1  3.950000e-01  2.310000e+00
TDA0  C3h  1  3.950000e-01  2.110000e+00
TDA0  C2h  1  3.950000e-01  1.850000e+00
TDA0  C1h  1  3.950000e-01  1.670000e+00
TDA0  X4h  1  3.950000e-01  2.310000e+00
TDA0  X3h  1  3.950000e-01  2.310000e+00
TDA0  X2h  1  3.950000e-01  2.110000e+00
TDA0  X1h  1  3.950000e-01  2.110000e+00
TDA0  N1dh  1  3.950000e-01  2.310000e+00
TDA0  X1eh  1  3.950000e-01  2.310000e+00
TDA0  X2eh  1  3.950000e-01  2.310000e+00
TDA0  X3eh  1  3.950000e-01  2.500000e+00
TDA0  X4eh  1  3.950000e-01  2.500000e+00
TDA0  C1eh  1  3.950000e-01  1.850000e+00
TDA0  C2eh  1  3.950000e-01  2.110000e+00
TDA0  C3eh  1  3.950000e-01  2.310000e+00
TDA0  C4eh  1  3.950000e-01  2.500000e+00
TDA0  C5eh  1  3.950000e-01  2.500000e+00
TDA0  C6eh  1  3.950000e-01  2.700000e+00
TDA0  X1vh  1  3.950000e-01  1.850000e+00
TDA0  X2vh  1  3.950000e-01  1.850000e+00
TDA0  X3vh  1  3.950000e-01  2.110000e+00
TDA0  X4vh  1  3.950000e-01  2.110000e+00
TDA0  C1vh  1  3.980000e-01  1.450000e+00
TDA0  C2vh  1  3.950000e-01  1.670000e+00
TDA0  C3vh  1  3.950000e-01  1.850000e+00
TDA0  C4vh  1  3.950000e-01  2.110000e+00
TDA0  C5vh  1  3.950000e-01  2.110000e+00
TDA0  C6vh  1  3.950000e-01  2.310000e+00
TDA0  N1ah  1  3.950000e-01  2.700000e+00
TDA0  C6r  1  3.950000e-01  2.500000e+00
TDA0  C5r  1  3.950000e-01  2.310000e+00
TDA0  C4r  1  3.950000e-01  2.310000e+00
TDA0  C3r  1  3.950000e-01  2.110000e+00
TDA0  C2r  1  3.950000e-01  1.850000e+00
TDA0  C1r  1  3.950000e-01  1.670000e+00
TDA0  X4r  1  3.950000e-01  2.310000e+00
TDA0  X3r  1  3.950000e-01  2.310000e+00
TDA0  X2r  1  3.950000e-01  2.110000e+00
TDA0  X1r  1  3.950000e-01  2.110000e+00
TDA0  N1dr  1  3.950000e-01  2.310000e+00
TDA0  X1er  1  3.950000e-01  2.310000e+00
TDA0  X2er  1  3.950000e-01  2.310000e+00
TDA0  X3er  1  3.950000e-01  2.500000e+00
TDA0  X4er  1  3.950000e-01  2.500000e+00
TDA0  C1er  1  3.950000e-01  1.850000e+00
TDA0  C2er  1  3.950000e-01  2.110000e+00
TDA0  C3er  1  3.950000e-01  2.310000e+00
TDA0  C4er  1  3.950000e-01  2.500000e+00
TDA0  C5er  1  3.950000e-01  2.500000e+00
TDA0  C6er  1  3.950000e-01  2.700000e+00
TDA0  X1vr  1  3.950000e-01  1.850000e+00
TDA0  X2vr  1  3.950000e-01  1.850000e+00
TDA0  X3vr  1  3.950000e-01  2.110000e+00
TDA0  X4vr  1  3.950000e-01  2.110000e+00
TDA0  C1vr  1  3.980000e-01  1.450000e+00
TDA0  C2vr  1  3.950000e-01  1.670000e+00
TDA0  C3vr  1  3.950000e-01  1.850000e+00
TDA0  C4vr  1  3.950000e-01  2.110000e+00
TDA0  C5vr  1  3.950000e-01  2.110000e+00
TDA0  C6vr  1  3.950000e-01  2.310000e+00
TDA0  N1ar  1  3.950000e-01  2.700000e+00
TDA0  TN1a  1  3.400000e-01  2.500000e+00
TDA0  TN1aq  1  3.400000e-01  2.990000e+00
TDA0  TN1ah  1  3.400000e-01  2.500000e+00
TDA0  TN1ar  1  3.400000e-01  2.500000e+00
TP6a  TDA0  1  3.660000e-01  9.350000e-01
TP5a  TDA0  1  3.660000e-01  9.350000e-01
TP4a  TDA0  1  3.520000e-01  1.050000e+00
TP3a  TDA0  1  3.400000e-01  1.230000e+00
TP2a  TDA0  1  3.400000e-01  2.280000e+00
TP1a  TDA0  1  3.400000e-01  2.280000e+00
TN6a  TDA0  1  3.400000e-01  2.280000e+00
TN5a  TDA0  1  3.400000e-01  2.280000e+00
TN4a  TDA0  1  3.400000e-01  2.280000e+00
TN3a  TDA0  1  3.400000e-01  2.280000e+00
TN2a  TDA0  1  3.400000e-01  2.280000e+00
TN2aq  TDA0  1  3.400000e-01  2.740000e+00
TN3aq  TDA0  1  3.400000e-01  2.740000e+00
TN4aq  TDA0  1  3.400000e-01  2.740000e+00
TN5aq  TDA0  1  3.400000e-01  2.740000e+00
TN6aq  TDA0  1  3.400000e-01  2.740000e+00
TP1aq  TDA0  1  3.400000e-01  2.740000e+00
TP2aq  TDA0  1  3.400000e-01  2.740000e+00
TP3aq  TDA0  1  3.400000e-01  2.280000e+00
TP4aq  TDA0  1  3.400000e-01  2.020000e+00
TP5aq  TDA0  1  3.400000e-01  1.230000e+00
TP6aq  TDA0  1  3.400000e-01  1.230000e+00
TN2ah  TDA0  1  3.400000e-01  2.280000e+00
TN3ah  TDA0  1  3.400000e-01  2.280000e+00
TN4ah  TDA0  1  3.400000e-01  2.280000e+00
TN5ah  TDA0  1  3.400000e-01  2.280000e+00
TN6ah  TDA0  1  3.400000e-01  2.280000e+00
TP1ah  TDA0  1  3.400000e-01  2.280000e+00
TP2ah  TDA0  1  3.400000e-01  2.280000e+00
TP3ah  TDA0  1  3.400000e-01  1.230000e+00
TP4ah  TDA0  1  3.520000e-01  1.050000e+00
TP5ah  TDA0  1  3.660000e-01  9.350000e-01
TP6ah  TDA0  1  3.660000e-01  9.350000e-01
TN2ar  TDA0  1  3.400000e-01  2.280000e+00
TN3ar  TDA0  1  3.400000e-01  2.280000e+00
TN4ar  TDA0  1  3.400000e-01  2.280000e+00
TN5ar  TDA0  1  3.400000e-01  2.280000e+00
TN6ar  TDA0  1  3.400000e-01  2.280000e+00
TP1ar  TDA0  1  3.400000e-01  2.280000e+00
TP2ar  TDA0  1  3.400000e-01  2.280000e+00
TP3ar  TDA0  1  3.400000e-01  1.230000e+00
TP4ar  TDA0  1  3.520000e-01  1.050000e+00
TP5ar  TDA0  1  3.660000e-01  9.350000e-01
TP6ar  TDA0  1  3.660000e-01  9.350000e-01
TDA0  TC6e  1  3.400000e-01  2.020000e+00
TDA0  TC5e  1  3.400000e-01  1.770000e+00
TDA0  TC4e  1  3.400000e-01  1.770000e+00
TDA0  TC3e  1  3.400000e-01  1.510000e+00
TDA0  TC2e  1  3.400000e-01  1.230000e+00
TDA0  TC1e  1  3.520000e-01  1.050000e+00
TDA0  TX4e  1  3.400000e-01  1.770000e+00
TDA0  TX3e  1  3.400000e-01  1.770000e+00
TDA0  TX2e  1  3.400000e-01  1.510000e+00
TDA0  TX1e  1  3.400000e-01  1.510000e+00
TDA0  TX1eq  1  3.400000e-01  2.020000e+00
TDA0  TX2eq  1  3.400000e-01  2.020000e+00
TDA0  TX3eq  1  3.400000e-01  2.280000e+00
TDA0  TX4eq  1  3.400000e-01  2.280000e+00
TDA0  TC1eq  1  3.400000e-01  1.510000e+00
TDA0  TC2eq  1  3.400000e-01  1.770000e+00
TDA0  TC3eq  1  3.400000e-01  2.020000e+00
TDA0  TC4eq  1  3.400000e-01  2.280000e+00
TDA0  TC5eq  1  3.400000e-01  2.280000e+00
TDA0  TC6eq  1  3.400000e-01  2.500000e+00
TDA0  TX1eh  1  3.400000e-01  1.510000e+00
TDA0  TX2eh  1  3.400000e-01  1.510000e+00
TDA0  TX3eh  1  3.400000e-01  1.770000e+00
TDA0  TX4eh  1  3.400000e-01  1.770000e+00
TDA0  TC1eh  1  3.520000e-01  1.050000e+00
TDA0  TC2eh  1  3.400000e-01  1.230000e+00
TDA0  TC3eh  1  3.400000e-01  1.510000e+00
TDA0  TC4eh  1  3.400000e-01  1.770000e+00
TDA0  TC5eh  1  3.400000e-01  1.770000e+00
TDA0  TC6eh  1  3.400000e-01  2.020000e+00
TDA0  TX1er  1  3.400000e-01  1.510000e+00
TDA0  TX2er  1  3.400000e-01  1.510000e+00
TDA0  TX3er  1  3.400000e-01  1.770000e+00
TDA0  TX4er  1  3.400000e-01  1.770000e+00
TDA0  TC1er  1  3.520000e-01  1.050000e+00
TDA0  TC2er  1  3.400000e-01  1.230000e+00
TDA0  TC3er  1  3.400000e-01  1.510000e+00
TDA0  TC4er  1  3.400000e-01  1.770000e+00
TDA0  TC5er  1  3.400000e-01  1.770000e+00
TDA0  TC6er  1  3.400000e-01  2.020000e+00
TDA0  TC6v  1  3.400000e-01  1.510000e+00
TDA0  TC5v  1  3.400000e-01  1.230000e+00
TDA0  TC4v  1  3.400000e-01  1.230000e+00
TDA0  TC3v  1  3.520000e-01  1.050000e+00
TDA0  TC2v  1  3.660000e-01  9.350000e-01
TDA0  TC1v  1  3.850000e-01  8.550000e-01
TDA0  TX4v  1  3.400000e-01  1.230000e+00
TDA0  TX3v  1  3.400000e-01  1.230000e+00
TDA0  TX2v  1  3.520000e-01  1.050000e+00
TDA0  TX1v  1  3.520000e-01  1.050000e+00
TDA0  TX1vq  1  3.400000e-01  1.510000e+00
TDA0  TX2vq  1  3.400000e-01  1.510000e+00
TDA0  TX3vq  1  3.400000e-01  1.770000e+00
TDA0  TX4vq  1  3.400000e-01  1.770000e+00
TDA0  TC1vq  1  3.520000e-01  1.050000e+00
TDA0  TC2vq  1  3.400000e-01  1.230000e+00
TDA0  TC3vq  1  3.400000e-01  1.510000e+00
TDA0  TC4vq  1  3.400000e-01  1.770000e+00
TDA0  TC5vq  1  3.400000e-01  1.770000e+00
TDA0  TC6vq  1  3.400000e-01  2.020000e+00
TDA0  TX1vh  1  3.520000e-01  1.050000e+00
TDA0  TX2vh  1  3.520000e-01  1.050000e+00
TDA0  TX3vh  1  3.400000e-01  1.230000e+00
TDA0  TX4vh  1  3.400000e-01  1.230000e+00
TDA0  TC1vh  1  3.850000e-01  8.550000e-01
TDA0  TC2vh  1  3.660000e-01  9.350000e-01
TDA0  TC3vh  1  3.520000e-01  1.050000e+00
TDA0  TC4vh  1  3.400000e-01  1.230000e+00
TDA0  TC5vh  1  3.400000e-01  1.230000e+00
TDA0  TC6vh  1  3.400000e-01  1.510000e+00
TDA0  TX1vr  1  3.520000e-01  1.050000e+00
TDA0  TX2vr  1  3.520000e-01  1.050000e+00
TDA0  TX3vr  1  3.400000e-01  1.230000e+00
TDA0  TX4vr  1  3.400000e-01  1.230000e+00
TDA0  TC1vr  1  3.850000e-01  8.550000e-01
TDA0  TC2vr  1  3.660000e-01  9.350000e-01
TDA0  TC3vr  1  3.520000e-01  1.050000e+00
TDA0  TC4vr  1  3.400000e-01  1.230000e+00
TDA0  TC5vr  1  3.400000e-01  1.230000e+00
TDA0  TC6vr  1  3.400000e-01  1.510000e+00
TDA0  TN1dq  1  3.400000e-01  2.020000e+00
TDA0  TN1dh  1  3.400000e-01  1.510000e+00
TDA0  TN1dr  1  3.400000e-01  1.510000e+00
TP6d  TDA0  1  3.660000e-01  9.350000e-01
TP5d  TDA0  1  3.660000e-01  9.350000e-01
TP4d  TDA0  1  3.520000e-01  1.050000e+00
TP3d  TDA0  1  3.400000e-01  1.230000e+00
TP2d  TDA0  1  3.400000e-01  1.230000e+00
TP1d  TDA0  1  3.400000e-01  1.230000e+00
TN6d  TDA0  1  3.400000e-01  1.230000e+00
TN5d  TDA0  1  3.400000e-01  1.230000e+00
TN4d  TDA0  1  3.400000e-01  1.230000e+00
TN3d  TDA0  1  3.400000e-01  1.230000e+00
TN2d  TDA0  1  3.400000e-01  1.230000e+00
TDA0  TN1d  1  3.400000e-01  1.510000e+00
TP6q  TDA0  1  3.400000e-01  1.230000e+00
TP5q  TDA0  1  3.400000e-01  1.230000e+00
TP4q  TDA0  1  3.400000e-01  1.510000e+00
TP3q  TDA0  1  3.400000e-01  1.770000e+00
TP2q  TDA0  1  3.400000e-01  2.020000e+00
TP1q  TDA0  1  3.400000e-01  2.020000e+00
TN6q  TDA0  1  3.400000e-01  2.020000e+00
TN5q  TDA0  1  3.400000e-01  2.020000e+00
TN4q  TDA0  1  3.400000e-01  2.020000e+00
TN3q  TDA0  1  3.400000e-01  2.020000e+00
TN2q  TDA0  1  3.400000e-01  2.020000e+00
TN1q  TDA0  1  3.400000e-01  2.280000e+00
TDA0  TC6q  1  3.400000e-01  2.280000e+00
TDA0  TC5q  1  3.400000e-01  2.020000e+00
TDA0  TC4q  1  3.400000e-01  2.020000e+00
TDA0  TC3q  1  3.400000e-01  1.770000e+00
TDA0  TC2q  1  3.400000e-01  1.510000e+00
TDA0  TC1q  1  3.400000e-01  1.230000e+00
TDA0  TX4q  1  3.400000e-01  2.020000e+00
TDA0  TX3q  1  3.400000e-01  2.020000e+00
TDA0  TX2q  1  3.400000e-01  1.770000e+00
TDA0  TX1q  1  3.400000e-01  1.770000e+00
TP6h  TDA0  1  3.660000e-01  9.350000e-01
TP5h  TDA0  1  3.660000e-01  9.350000e-01
TP4h  TDA0  1  3.520000e-01  1.050000e+00
TP3h  TDA0  1  3.400000e-01  1.230000e+00
TP2h  TDA0  1  3.400000e-01  1.510000e+00
TP1h  TDA0  1  3.400000e-01  1.510000e+00
TN6h  TDA0  1  3.400000e-01  1.510000e+00
TN5h  TDA0  1  3.400000e-01  1.510000e+00
TN4h  TDA0  1  3.400000e-01  1.510000e+00
TN3h  TDA0  1  3.400000e-01  1.510000e+00
TN2h  TDA0  1  3.400000e-01  1.510000e+00
TN1h  TDA0  1  3.400000e-01  1.770000e+00
TDA0  TC6h  1  3.400000e-01  1.770000e+00
TDA0  TC5h  1  3.400000e-01  1.510000e+00
TDA0  TC4h  1  3.400000e-01  1.510000e+00
TDA0  TC3h  1  3.400000e-01  1.230000e+00
TDA0  TC2h  1  3.520000e-01  1.050000e+00
TDA0  TC1h  1  3.660000e-01  9.350000e-01
TDA0  TX4h  1  3.400000e-01  1.510000e+00
TDA0  TX3h  1  3.400000e-01  1.510000e+00
TDA0  TX2h  1  3.400000e-01  1.230000e+00
TDA0  TX1h  1  3.400000e-01  1.230000e+00
TP6r  TDA0  1  3.660000e-01  9.350000e-01
TP5r  TDA0  1  3.660000e-01  9.350000e-01
TP4r  TDA0  1  3.520000e-01  1.050000e+00
TP3r  TDA0  1  3.400000e-01  1.230000e+00
TP2r  TDA0  1  3.400000e-01  1.510000e+00
TP1r  TDA0  1  3.400000e-01  1.510000e+00
TN6r  TDA0  1  3.400000e-01  1.510000e+00
TN5r  TDA0  1  3.400000e-01  1.510000e+00
TN4r  TDA0  1  3.400000e-01  1.510000e+00
TN3r  TDA0  1  3.400000e-01  1.510000e+00
TN2r  TDA0  1  3.400000e-01  1.510000e+00
TN1r  TDA0  1  3.400000e-01  1.770000e+00
TDA0  TC6r  1  3.400000e-01  1.770000e+00
TDA0  TC5r  1  3.400000e-01  1.510000e+00
TDA0  TC4r  1  3.400000e-01  1.510000e+00
TDA0  TC3r  1  3.400000e-01  1.230000e+00
TDA0  TC2r  1  3.520000e-01  1.050000e+00
TDA0  TC1r  1  3.660000e-01  9.350000e-01
TDA0  TX4r  1  3.400000e-01  1.510000e+00
TDA0  TX3r  1  3.400000e-01  1.510000e+00
TDA0  TX2r  1  3.400000e-01  1.230000e+00
TDA0  TX1r  1  3.400000e-01  1.230000e+00
TP6dq  TDA0  1  3.400000e-01  1.230000e+00
TP5dq  TDA0  1  3.400000e-01  1.230000e+00
TP4dq  TDA0  1  3.400000e-01  1.510000e+00
TP3dq  TDA0  1  3.400000e-01  1.770000e+00
TP2dq  TDA0  1  3.400000e-01  1.770000e+00
TP1dq  TDA0  1  3.400000e-01  1.770000e+00
TN6dq  TDA0  1  3.400000e-01  1.770000e+00
TN5dq  TDA0  1  3.400000e-01  1.770000e+00
TN4dq  TDA0  1  3.400000e-01  1.770000e+00
TN3dq  TDA0  1  3.400000e-01  1.770000e+00
TN2dq  TDA0  1  3.400000e-01  1.770000e+00
TP6dh  TDA0  1  3.660000e-01  9.350000e-01
TP5dh  TDA0  1  3.660000e-01  9.350000e-01
TP4dh  TDA0  1  3.520000e-01  1.050000e+00
TP3dh  TDA0  1  3.400000e-01  1.230000e+00
TP2dh  TDA0  1  3.400000e-01  1.230000e+00
TP1dh  TDA0  1  3.400000e-01  1.230000e+00
TN6dh  TDA0  1  3.400000e-01  1.230000e+00
TN5dh  TDA0  1  3.400000e-01  1.230000e+00
TN4dh  TDA0  1  3.400000e-01  1.230000e+00
TN3dh  TDA0  1  3.400000e-01  1.230000e+00
TN2dh  TDA0  1  3.400000e-01  1.230000e+00
TP6dr  TDA0  1  3.660000e-01  9.350000e-01
TP5dr  TDA0  1  3.660000e-01  9.350000e-01
TP4dr  TDA0  1  3.520000e-01  1.050000e+00
TP3dr  TDA0  1  3.400000e-01  1.230000e+00
TP2dr  TDA0  1  3.400000e-01  1.230000e+00
TP1dr  TDA0  1  3.400000e-01  1.230000e+00
TN6dr  TDA0  1  3.400000e-01  1.230000e+00
TN5dr  TDA0  1  3.400000e-01  1.230000e+00
TN4dr  TDA0  1  3.400000e-01  1.230000e+00
TN3dr  TDA0  1  3.400000e-01  1.230000e+00
TN2dr  TDA0  1  3.400000e-01  1.230000e+00
W  TDA0  1  3.850000e-01  1.550000e+00
SW  TDA0  1  3.750000e-01  1.130000e+00
TW  TDA0  1  3.530000e-01  1.330000e+00
TDA0  D  1  3.950000e-01  2.580000e+00
TDA0  SD  1  3.650000e-01  7.023000e+00
TDA0  TD  1  3.400000e-01  8.279000e+00
TDA0  Q5  1  3.950000e-01  3.232000e+00
TDA0  SQ5  1  3.650000e-01  4.174000e+00
TDA0  TQ5  1  3.400000e-01  5.810000e+00
TDA0  Q5p  1  3.950000e-01  2.992000e+00
TDA0  SQ5p  1  3.650000e-01  3.944000e+00
TDA0  TQ5p  1  3.400000e-01  5.550000e+00
TDA0  Q5n  1  3.950000e-01  3.722000e+00
TDA0  SQ5n  1  3.650000e-01  4.704000e+00
TDA0  TQ5n  1  3.400000e-01  6.520000e+00
TDA0  Q4  1  3.950000e-01  3.250000e+00
TDA0  SQ4  1  3.650000e-01  4.271000e+00
TDA0  TQ4  1  3.400000e-01  6.022000e+00
TDA0  Q4p  1  3.950000e-01  3.010000e+00
TDA0  SQ4p  1  3.650000e-01  4.041000e+00
TDA0  TQ4p  1  3.400000e-01  5.762000e+00
TDA0  Q4n  1  3.950000e-01  3.740000e+00
TDA0  SQ4n  1  3.650000e-01  4.801000e+00
TDA0  TQ4n  1  3.400000e-01  6.732000e+00
TDA0  Q3  1  3.950000e-01  3.282000e+00
TDA0  SQ3  1  3.650000e-01  4.448000e+00
TDA0  TQ3  1  3.400000e-01  6.411000e+00
TDA0  Q3p  1  3.950000e-01  3.042000e+00
TDA0  SQ3p  1  3.650000e-01  4.218000e+00
TDA0  TQ3p  1  3.400000e-01  6.151000e+00
TDA0  Q3n  1  3.950000e-01  3.772000e+00
TDA0  SQ3n  1  3.650000e-01  4.978000e+00
TDA0  TQ3n  1  3.400000e-01  7.121000e+00
TDA0  Q2  1  3.950000e-01  3.306000e+00
TDA0  SQ2  1  3.650000e-01  4.576000e+00
TDA0  TQ2  1  3.400000e-01  6.694000e+00
TDA0  Q2p  1  3.950000e-01  3.066000e+00
TDA0  SQ2p  1  3.650000e-01  4.346000e+00
TDA0  TQ2p  1  3.400000e-01  6.434000e+00
TDA0  Q2n  1  3.950000e-01  3.796000e+00
TDA0  SQ2n  1  3.650000e-01  5.106000e+00
TDA0  TQ2n  1  3.400000e-01  7.404000e+00
TDA0  Q1  1  3.950000e-01  3.086000e+00
TDA0  SQ1  1  3.650000e-01  4.458000e+00
TDA0  TQ1  1  3.400000e-01  6.679000e+00
TDA0  Q1p  1  3.950000e-01  2.886000e+00
TDA0  SQ1p  1  3.650000e-01  4.228000e+00
TDA0  TQ1p  1  3.400000e-01  6.429000e+00
TDA0  Q1n  1  3.950000e-01  3.576000e+00
TDA0  SQ1n  1  3.650000e-01  4.948000e+00
TDA0  TQ1n  1  3.400000e-01  7.399000e+00
P6  TDA1  1  3.950000e-01  2.110000e+00
SP6  TDA1  1  3.650000e-01  1.750000e+00
TP6  TDA1  1  3.400000e-01  1.230000e+00
P5  TDA1  1  3.950000e-01  2.110000e+00
SP5  TDA1  1  3.650000e-01  1.750000e+00
TP5  TDA1  1  3.400000e-01  1.230000e+00
P4  TDA1  1  3.950000e-01  2.310000e+00
SP4  TDA1  1  3.650000e-01  1.910000e+00
TP4  TDA1  1  3.400000e-01  1.510000e+00
P3  TDA1  1  3.950000e-01  2.310000e+00
SP3  TDA1  1  3.650000e-01  1.910000e+00
TP3  TDA1  1  3.400000e-01  1.510000e+00
P2  TDA1  1  3.950000e-01  2.310000e+00
SP2  TDA1  1  3.650000e-01  1.910000e+00
TP2  TDA1  1  3.400000e-01  1.510000e+00
P1  TDA1  1  3.950000e-01  2.310000e+00
SP1  TDA1  1  3.650000e-01  1.910000e+00
TP1  TDA1  1  3.400000e-01  1.510000e+00
N6  TDA1  1  3.950000e-01  2.500000e+00
SN6  TDA1  1  3.650000e-01  2.110000e+00
TN6  TDA1  1  3.400000e-01  1.770000e+00
N5  TDA1  1  3.950000e-01  2.500000e+00
SN5  TDA1  1  3.650000e-01  2.110000e+00
TN5  TDA1  1  3.400000e-01  1.770000e+00
N4  TDA1  1  3.950000e-01  2.500000e+00
SN4  TDA1  1  3.650000e-01  2.110000e+00
TN4  TDA1  1  3.400000e-01  1.770000e+00
N3  TDA1  1  3.950000e-01  2.500000e+00
SN3  TDA1  1  3.650000e-01  2.110000e+00
TN3  TDA1  1  3.400000e-01  1.770000e+00
TDA1  N2  1  3.950000e-01  2.500000e+00
TDA1  SN2  1  3.650000e-01  2.110000e+00
TDA1  TN2  1  3.400000e-01  1.770000e+00
TDA1  N1  1  3.950000e-01  2.310000e+00
TDA1  SN1  1  3.650000e-01  1.910000e+00
TDA1  TN1  1  3.400000e-01  1.510000e+00
TDA1  C6  1  3.950000e-01  2.310000e+00
TDA1  SC6  1  3.650000e-01  1.910000e+00
TDA1  TC6  1  3.400000e-01  1.510000e+00
TDA1  C5  1  3.950000e-01  2.110000e+00
TDA1  SC5  1  3.650000e-01  1.750000e+00
TDA1  TC5  1  3.400000e-01  1.230000e+00
TDA1  C4  1  3.950000e-01  2.110000e+00
TDA1  SC4  1  3.650000e-01  1.750000e+00
TDA1  TC4  1  3.400000e-01  1.230000e+00
TDA1  C3  1  3.950000e-01  1.850000e+00
TDA1  SC3  1  3.660000e-01  1.600000e+00
TDA1  TC3  1  3.520000e-01  1.050000e+00
TDA1  C2  1  3.950000e-01  1.850000e+00
TDA1  SC2  1  3.660000e-01  1.600000e+00
TDA1  TC2  1  3.520000e-01  1.050000e+00
TDA1  C1  1  3.950000e-01  1.670000e+00
TDA1  SC1  1  3.780000e-01  1.450000e+00
TDA1  TC1  1  3.660000e-01  9.350000e-01
TDA1  X4  1  3.950000e-01  2.500000e+00
TDA1  SX4  1  3.650000e-01  2.110000e+00
TDA1  TX4  1  3.400000e-01  1.770000e+00
TDA1  X3  1  3.950000e-01  2.310000e+00
TDA1  SX3  1  3.650000e-01  1.910000e+00
TDA1  TX3  1  3.400000e-01  1.510000e+00
TDA1  X2  1  3.950000e-01  2.110000e+00
TDA1  SX2  1  3.650000e-01  1.750000e+00
TDA1  TX2  1  3.400000e-01  1.230000e+00
TDA1  X1  1  3.950000e-01  2.110000e+00
TDA1  SX1  1  3.650000e-01  1.750000e+00
TDA1  TX1  1  3.400000e-01  1.230000e+00
SP6a  TDA1  1  3.650000e-01  1.750000e+00
SP5a  TDA1  1  3.650000e-01  1.750000e+00
SP4a  TDA1  1  3.650000e-01  1.750000e+00
SP3a  TDA1  1  3.650000e-01  1.750000e+00
SP2a  TDA1  1  3.650000e-01  1.750000e+00
SP1a  TDA1  1  3.650000e-01  1.750000e+00
SN6a  TDA1  1  3.650000e-01  1.910000e+00
SN5a  TDA1  1  3.650000e-01  1.910000e+00
SN4a  TDA1  1  3.650000e-01  1.910000e+00
SN3a  TDA1  1  3.650000e-01  1.910000e+00
SP6d  TDA1  1  3.650000e-01  1.750000e+00
SP5d  TDA1  1  3.650000e-01  1.750000e+00
SP4d  TDA1  1  3.650000e-01  2.110000e+00
SP3d  TDA1  1  3.650000e-01  2.110000e+00
SP2d  TDA1  1  3.650000e-01  2.110000e+00
SP1d  TDA1  1  3.650000e-01  2.110000e+00
SN6d  TDA1  1  3.650000e-01  2.340000e+00
SN5d  TDA1  1  3.650000e-01  2.340000e+00
SN4d  TDA1  1  3.650000e-01  2.340000e+00
SN3d  TDA1  1  3.650000e-01  2.340000e+00
SP6q  TDA1  1  3.650000e-01  2.110000e+00
SP5q  TDA1  1  3.650000e-01  2.110000e+00
SP4q  TDA1  1  3.650000e-01  2.340000e+00
SP3q  TDA1  1  3.650000e-01  2.340000e+00
SP2q  TDA1  1  3.650000e-01  2.340000e+00
SP1q  TDA1  1  3.650000e-01  2.340000e+00
SN6q  TDA1  1  3.650000e-01  2.570000e+00
SN5q  TDA1  1  3.650000e-01  2.570000e+00
SN4q  TDA1  1  3.650000e-01  2.570000e+00
SN3q  TDA1  1  3.650000e-01  2.570000e+00
SP6h  TDA1  1  3.650000e-01  1.750000e+00
SP5h  TDA1  1  3.650000e-01  1.750000e+00
SP4h  TDA1  1  3.650000e-01  1.910000e+00
SP3h  TDA1  1  3.650000e-01  1.910000e+00
SP2h  TDA1  1  3.650000e-01  1.910000e+00
SP1h  TDA1  1  3.650000e-01  1.910000e+00
SN6h  TDA1  1  3.650000e-01  2.110000e+00
SN5h  TDA1  1  3.650000e-01  2.110000e+00
SN4h  TDA1  1  3.650000e-01  2.110000e+00
SN3h  TDA1  1  3.650000e-01  2.110000e+00
SP6r  TDA1  1  3.650000e-01  1.750000e+00
SP5r  TDA1  1  3.650000e-01  1.750000e+00
SP4r  TDA1  1  3.650000e-01  1.910000e+00
SP3r  TDA1  1  3.650000e-01  1.910000e+00
SP2r  TDA1  1  3.650000e-01  1.910000e+00
SP1r  TDA1  1  3.650000e-01  1.910000e+00
SN6r  TDA1  1  3.650000e-01  2.110000e+00
SN5r  TDA1  1  3.650000e-01  2.110000e+00
SN4r  TDA1  1  3.650000e-01  2.110000e+00
SN3r  TDA1  1  3.650000e-01  2.110000e+00
SP6dq  TDA1  1  3.650000e-01  2.110000e+00
SP5dq  TDA1  1  3.650000e-01  2.110000e+00
SP4dq  TDA1  1  3.650000e-01  2.570000e+00
SP3dq  TDA1  1  3.650000e-01  2.570000e+00
SP2dq  TDA1  1  3.650000e-01  2.570000e+00
SP1dq  TDA1  1  3.650000e-01  2.570000e+00
SN6dq  TDA1  1  3.650000e-01  2.830000e+00
SN5dq  TDA1  1  3.650000e-01  2.830000e+00
SN4dq  TDA1  1  3.650000e-01  2.830000e+00
SN3dq  TDA1  1  3.650000e-01  2.830000e+00
SP6aq  TDA1  1  3.650000e-01  2.110000e+00
SP5aq  TDA1  1  3.650000e-01  2.110000e+00
SP4aq  TDA1  1  3.650000e-01  2.110000e+00
SP3aq  TDA1  1  3.650000e-01  2.110000e+00
SP2aq  TDA1  1  3.650000e-01  2.110000e+00
SP1aq  TDA1  1  3.650000e-01  2.110000e+00
SN6aq  TDA1  1  3.650000e-01  2.340000e+00
SN5aq  TDA1  1  3.650000e-01  2.340000e+00
SN4aq  TDA1  1  3.650000e-01  2.340000e+00
SP6dh  TDA1  1  3.650000e-01  1.750000e+00
SP5dh  TDA1  1  3.650000e-01  1.750000e+00
SP4dh  TDA1  1  3.650000e-01  2.110000e+00
SP3dh  TDA1  1  3.650000e-01  2.110000e+00
SP2dh  TDA1  1  3.650000e-01  2.110000e+00
SP1dh  TDA1  1  3.650000e-01  2.110000e+00
SN6dh  TDA1  1  3.650000e-01  2.340000e+00
SN5dh  TDA1  1  3.650000e-01  2.340000e+00
SN4dh  TDA1  1  3.650000e-01  2.340000e+00
SN3dh  TDA1  1  3.650000e-01  2.340000e+00
SP6ah  TDA1  1  3.650000e-01  1.750000e+00
SP5ah  TDA1  1  3.650000e-01  1.750000e+00
SP4ah  TDA1  1  3.650000e-01  1.750000e+00
SP3ah  TDA1  1  3.650000e-01  1.750000e+00
SP2ah  TDA1  1  3.650000e-01  1.750000e+00
SP1ah  TDA1  1  3.650000e-01  1.750000e+00
SN6ah  TDA1  1  3.650000e-01  1.910000e+00
SN5ah  TDA1  1  3.650000e-01  1.910000e+00
SN4ah  TDA1  1  3.650000e-01  1.910000e+00
SP6dr  TDA1  1  3.650000e-01  1.750000e+00
SP5dr  TDA1  1  3.650000e-01  1.750000e+00
SP4dr  TDA1  1  3.650000e-01  2.110000e+00
SP3dr  TDA1  1  3.650000e-01  2.110000e+00
SP2dr  TDA1  1  3.650000e-01  2.110000e+00
SP1dr  TDA1  1  3.650000e-01  2.110000e+00
SN6dr  TDA1  1  3.650000e-01  2.340000e+00
SN5dr  TDA1  1  3.650000e-01  2.340000e+00
SN4dr  TDA1  1  3.650000e-01  2.340000e+00
SN3dr  TDA1  1  3.650000e-01  2.340000e+00
SP6ar  TDA1  1  3.650000e-01  1.750000e+00
SP5ar  TDA1  1  3.650000e-01  1.750000e+00
SP4ar  TDA1  1  3.650000e-01  1.750000e+00
SP3ar  TDA1  1  3.650000e-01  1.750000e+00
SP2ar  TDA1  1  3.650000e-01  1.750000e+00
SP1ar  TDA1  1  3.650000e-01  1.750000e+00
SN6ar  TDA1  1  3.650000e-01  1.910000e+00
SN5ar  TDA1  1  3.650000e-01  1.910000e+00
SN4ar  TDA1  1  3.650000e-01  1.910000e+00
TDA1  SN2dq  1  3.650000e-01  2.830000e+00
TDA1  SN1dq  1  3.650000e-01  2.570000e+00
TDA1  SN3aq  1  3.650000e-01  2.340000e+00
TDA1  SX1eq  1  3.650000e-01  1.910000e+00
TDA1  SX2eq  1  3.650000e-01  1.910000e+00
TDA1  SX3eq  1  3.650000e-01  2.110000e+00
TDA1  SX4eq  1  3.650000e-01  2.340000e+00
TDA1  SC1eq  1  3.660000e-01  1.600000e+00
TDA1  SC2eq  1  3.650000e-01  1.750000e+00
TDA1  SC3eq  1  3.650000e-01  1.750000e+00
TDA1  SC4eq  1  3.650000e-01  1.910000e+00
TDA1  SC5eq  1  3.650000e-01  1.910000e+00
TDA1  SC6eq  1  3.650000e-01  2.110000e+00
TDA1  SX1vq  1  3.650000e-01  2.340000e+00
TDA1  SX2vq  1  3.650000e-01  2.340000e+00
TDA1  SX3vq  1  3.650000e-01  2.570000e+00
TDA1  SX4vq  1  3.650000e-01  2.830000e+00
TDA1  SC1vq  1  3.650000e-01  1.910000e+00
TDA1  SC2vq  1  3.650000e-01  2.110000e+00
TDA1  SC3vq  1  3.650000e-01  2.110000e+00
TDA1  SC4vq  1  3.650000e-01  2.340000e+00
TDA1  SC5vq  1  3.650000e-01  2.340000e+00
TDA1  SC6vq  1  3.650000e-01  2.570000e+00
TDA1  SN1aq  1  3.650000e-01  2.110000e+00
TDA1  SN2aq  1  3.650000e-01  2.340000e+00
TDA1  SN2dh  1  3.650000e-01  2.340000e+00
TDA1  SN1dh  1  3.650000e-01  2.110000e+00
TDA1  SN3ah  1  3.650000e-01  1.910000e+00
TDA1  SX1eh  1  3.660000e-01  1.600000e+00
TDA1  SX2eh  1  3.660000e-01  1.600000e+00
TDA1  SX3eh  1  3.650000e-01  1.750000e+00
TDA1  SX4eh  1  3.650000e-01  1.910000e+00
TDA1  SC1eh  1  3.940000e-01  1.290000e+00
TDA1  SC2eh  1  3.780000e-01  1.450000e+00
TDA1  SC3eh  1  3.780000e-01  1.450000e+00
TDA1  SC4eh  1  3.660000e-01  1.600000e+00
TDA1  SC5eh  1  3.660000e-01  1.600000e+00
TDA1  SC6eh  1  3.650000e-01  1.750000e+00
TDA1  SX1vh  1  3.650000e-01  1.910000e+00
TDA1  SX2vh  1  3.650000e-01  1.910000e+00
TDA1  SX3vh  1  3.650000e-01  2.110000e+00
TDA1  SX4vh  1  3.650000e-01  2.340000e+00
TDA1  SC1vh  1  3.660000e-01  1.600000e+00
TDA1  SC2vh  1  3.650000e-01  1.750000e+00
TDA1  SC3vh  1  3.650000e-01  1.750000e+00
TDA1  SC4vh  1  3.650000e-01  1.910000e+00
TDA1  SC5vh  1  3.650000e-01  1.910000e+00
TDA1  SC6vh  1  3.650000e-01  2.110000e+00
TDA1  SN1ah  1  3.650000e-01  1.750000e+00
TDA1  SN2ah  1  3.650000e-01  1.910000e+00
TDA1  SN2dr  1  3.650000e-01  2.340000e+00
TDA1  SN1dr  1  3.650000e-01  2.110000e+00
TDA1  SN3ar  1  3.650000e-01  1.910000e+00
TDA1  SX1er  1  3.660000e-01  1.600000e+00
TDA1  SX2er  1  3.660000e-01  1.600000e+00
TDA1  SX3er  1  3.650000e-01  1.750000e+00
TDA1  SX4er  1  3.650000e-01  1.910000e+00
TDA1  SC1er  1  3.940000e-01  1.290000e+00
TDA1  SC2er  1  3.780000e-01  1.450000e+00
TDA1  SC3er  1  3.780000e-01  1.450000e+00
TDA1  SC4er  1  3.660000e-01  1.600000e+00
TDA1  SC5er  1  3.660000e-01  1.600000e+00
TDA1  SC6er  1  3.650000e-01  1.750000e+00
TDA1  SX1vr  1  3.650000e-01  1.910000e+00
TDA1  SX2vr  1  3.650000e-01  1.910000e+00
TDA1  SX3vr  1  3.650000e-01  2.110000e+00
TDA1  SX4vr  1  3.650000e-01  2.340000e+00
TDA1  SC1vr  1  3.660000e-01  1.600000e+00
TDA1  SC2vr  1  3.650000e-01  1.750000e+00
TDA1  SC3vr  1  3.650000e-01  1.750000e+00
TDA1  SC4vr  1  3.650000e-01  1.910000e+00
TDA1  SC5vr  1  3.650000e-01  1.910000e+00
TDA1  SC6vr  1  3.650000e-01  2.110000e+00
TDA1  SN1ar  1  3.650000e-01  1.750000e+00
TDA1  SN2ar  1  3.650000e-01  1.910000e+00
TDA1  SN2a  1  3.650000e-01  1.910000e+00
TDA1  SN1a  1  3.650000e-01  1.750000e+00
TDA1  SN2d  1  3.650000e-01  2.340000e+00
TDA1  SN1d  1  3.650000e-01  2.110000e+00
TDA1  SC6v  1  3.650000e-01  2.110000e+00
TDA1  SC5v  1  3.650000e-01  1.910000e+00
TDA1  SC4v  1  3.650000e-01  1.910000e+00
TDA1  SC3v  1  3.650000e-01  1.750000e+00
TDA1  SC2v  1  3.650000e-01  1.750000e+00
TDA1  SC1v  1  3.660000e-01  1.600000e+00
TDA1  SX4v  1  3.650000e-01  2.340000e+00
TDA1  SX3v  1  3.650000e-01  2.110000e+00
TDA1  SX2v  1  3.650000e-01  1.910000e+00
TDA1  SX1v  1  3.650000e-01  1.910000e+00
TDA1  SC6e  1  3.650000e-01  1.750000e+00
TDA1  SC5e  1  3.660000e-01  1.600000e+00
TDA1  SC4e  1  3.660000e-01  1.600000e+00
TDA1  SC3e  1  3.780000e-01  1.450000e+00
TDA1  SC2e  1  3.780000e-01  1.450000e+00
TDA1  SC1e  1  3.940000e-01  1.290000e+00
TDA1  SX4e  1  3.650000e-01  1.910000e+00
TDA1  SX3e  1  3.650000e-01  1.750000e+00
TDA1  SX2e  1  3.660000e-01  1.600000e+00
TDA1  SX1e  1  3.660000e-01  1.600000e+00
TDA1  SN2q  1  3.650000e-01  2.570000e+00
TDA1  SN1q  1  3.650000e-01  2.340000e+00
TDA1  SC6q  1  3.650000e-01  2.340000e+00
TDA1  SC5q  1  3.650000e-01  2.110000e+00
TDA1  SC4q  1  3.650000e-01  2.110000e+00
TDA1  SC3q  1  3.650000e-01  1.910000e+00
TDA1  SC2q  1  3.650000e-01  1.910000e+00
TDA1  SC1q  1  3.650000e-01  1.750000e+00
TDA1  SX4q  1  3.650000e-01  2.570000e+00
TDA1  SX3q  1  3.650000e-01  2.340000e+00
TDA1  SX2q  1  3.650000e-01  2.110000e+00
TDA1  SX1q  1  3.650000e-01  2.110000e+00
TDA1  SN2h  1  3.650000e-01  2.110000e+00
TDA1  SN1h  1  3.650000e-01  1.910000e+00
TDA1  SC6h  1  3.650000e-01  1.910000e+00
TDA1  SC5h  1  3.650000e-01  1.750000e+00
TDA1  SC4h  1  3.650000e-01  1.750000e+00
TDA1  SC3h  1  3.660000e-01  1.600000e+00
TDA1  SC2h  1  3.660000e-01  1.600000e+00
TDA1  SC1h  1  3.780000e-01  1.450000e+00
TDA1  SX4h  1  3.650000e-01  2.110000e+00
TDA1  SX3h  1  3.650000e-01  1.910000e+00
TDA1  SX2h  1  3.650000e-01  1.750000e+00
TDA1  SX1h  1  3.650000e-01  1.750000e+00
TDA1  SN2r  1  3.650000e-01  2.110000e+00
TDA1  SN1r  1  3.650000e-01  1.910000e+00
TDA1  SC6r  1  3.650000e-01  1.910000e+00
TDA1  SC5r  1  3.650000e-01  1.750000e+00
TDA1  SC4r  1  3.650000e-01  1.750000e+00
TDA1  SC3r  1  3.660000e-01  1.600000e+00
TDA1  SC2r  1  3.660000e-01  1.600000e+00
TDA1  SC1r  1  3.780000e-01  1.450000e+00
TDA1  SX4r  1  3.650000e-01  2.110000e+00
TDA1  SX3r  1  3.650000e-01  1.910000e+00
TDA1  SX2r  1  3.650000e-01  1.750000e+00
TDA1  SX1r  1  3.650000e-01  1.750000e+00
P6a  TDA1  1  3.950000e-01  2.110000e+00
P5a  TDA1  1  3.950000e-01  2.110000e+00
P4a  TDA1  1  3.950000e-01  2.110000e+00
P3a  TDA1  1  3.950000e-01  2.110000e+00
P2a  TDA1  1  3.950000e-01  2.110000e+00
P1a  TDA1  1  3.950000e-01  2.110000e+00
N6a  TDA1  1  3.950000e-01  2.310000e+00
N5a  TDA1  1  3.950000e-01  2.310000e+00
N4a  TDA1  1  3.950000e-01  2.310000e+00
N3a  TDA1  1  3.950000e-01  2.310000e+00
P6d  TDA1  1  3.950000e-01  2.110000e+00
P5d  TDA1  1  3.950000e-01  2.110000e+00
P4d  TDA1  1  3.950000e-01  2.500000e+00
P3d  TDA1  1  3.950000e-01  2.500000e+00
P2d  TDA1  1  3.950000e-01  2.500000e+00
P1d  TDA1  1  3.950000e-01  2.500000e+00
N6d  TDA1  1  3.950000e-01  2.700000e+00
N5d  TDA1  1  3.950000e-01  2.700000e+00
N4d  TDA1  1  3.950000e-01  2.700000e+00
N3d  TDA1  1  3.950000e-01  2.700000e+00
P6q  TDA1  1  3.950000e-01  2.500000e+00
P5q  TDA1  1  3.950000e-01  2.500000e+00
P4q  TDA1  1  3.950000e-01  2.700000e+00
P3q  TDA1  1  3.950000e-01  2.700000e+00
P2q  TDA1  1  3.950000e-01  2.700000e+00
P1q  TDA1  1  3.950000e-01  2.700000e+00
N6q  TDA1  1  3.950000e-01  2.940000e+00
N5q  TDA1  1  3.950000e-01  2.940000e+00
N4q  TDA1  1  3.950000e-01  2.940000e+00
N3q  TDA1  1  3.950000e-01  2.940000e+00
P6dq  TDA1  1  3.950000e-01  2.500000e+00
P5dq  TDA1  1  3.950000e-01  2.500000e+00
P4dq  TDA1  1  3.950000e-01  2.940000e+00
P3dq  TDA1  1  3.950000e-01  2.940000e+00
P2dq  TDA1  1  3.950000e-01  2.940000e+00
P1dq  TDA1  1  3.950000e-01  2.940000e+00
N6dq  TDA1  1  3.950000e-01  3.190000e+00
N5dq  TDA1  1  3.950000e-01  3.190000e+00
N4dq  TDA1  1  3.950000e-01  3.190000e+00
N3dq  TDA1  1  3.950000e-01  3.190000e+00
P6aq  TDA1  1  3.950000e-01  2.500000e+00
P5aq  TDA1  1  3.950000e-01  2.500000e+00
P4aq  TDA1  1  3.950000e-01  2.500000e+00
P3aq  TDA1  1  3.950000e-01  2.500000e+00
P2aq  TDA1  1  3.950000e-01  2.500000e+00
P1aq  TDA1  1  3.950000e-01  2.500000e+00
N6aq  TDA1  1  3.950000e-01  2.700000e+00
N5aq  TDA1  1  3.950000e-01  2.700000e+00
N4aq  TDA1  1  3.950000e-01  2.700000e+00
P6h  TDA1  1  3.950000e-01  2.110000e+00
P5h  TDA1  1  3.950000e-01  2.110000e+00
P4h  TDA1  1  3.950000e-01  2.310000e+00
P3h  TDA1  1  3.950000e-01  2.310000e+00
P2h  TDA1  1  3.950000e-01  2.310000e+00
P1h  TDA1  1  3.950000e-01  2.310000e+00
N6h  TDA1  1  3.950000e-01  2.500000e+00
N5h  TDA1  1  3.950000e-01  2.500000e+00
N4h  TDA1  1  3.950000e-01  2.500000e+00
N3h  TDA1  1  3.950000e-01  2.500000e+00
P6dh  TDA1  1  3.950000e-01  2.110000e+00
P5dh  TDA1  1  3.950000e-01  2.110000e+00
P4dh  TDA1  1  3.950000e-01  2.500000e+00
P3dh  TDA1  1  3.950000e-01  2.500000e+00
P2dh  TDA1  1  3.950000e-01  2.500000e+00
P1dh  TDA1  1  3.950000e-01  2.500000e+00
N6dh  TDA1  1  3.950000e-01  2.700000e+00
N5dh  TDA1  1  3.950000e-01  2.700000e+00
N4dh  TDA1  1  3.950000e-01  2.700000e+00
N3dh  TDA1  1  3.950000e-01  2.700000e+00
P6ah  TDA1  1  3.950000e-01  2.110000e+00
P5ah  TDA1  1  3.950000e-01  2.110000e+00
P4ah  TDA1  1  3.950000e-01  2.110000e+00
P3ah  TDA1  1  3.950000e-01  2.110000e+00
P2ah  TDA1  1  3.950000e-01  2.110000e+00
P1ah  TDA1  1  3.950000e-01  2.110000e+00
N6ah  TDA1  1  3.950000e-01  2.310000e+00
N5ah  TDA1  1  3.950000e-01  2.310000e+00
N4ah  TDA1  1  3.950000e-01  2.310000e+00
P6r  TDA1  1  3.950000e-01  2.110000e+00
P5r  TDA1  1  3.950000e-01  2.110000e+00
P4r  TDA1  1  3.950000e-01  2.310000e+00
P3r  TDA1  1  3.950000e-01  2.310000e+00
P2r  TDA1  1  3.950000e-01  2.310000e+00
P1r  TDA1  1  3.950000e-01  2.310000e+00
N6r  TDA1  1  3.950000e-01  2.500000e+00
N5r  TDA1  1  3.950000e-01  2.500000e+00
N4r  TDA1  1  3.950000e-01  2.500000e+00
N3r  TDA1  1  3.950000e-01  2.500000e+00
P6dr  TDA1  1  3.950000e-01  2.110000e+00
P5dr  TDA1  1  3.950000e-01  2.110000e+00
P4dr  TDA1  1  3.950000e-01  2.500000e+00
P3dr  TDA1  1  3.950000e-01  2.500000e+00
P2dr  TDA1  1  3.950000e-01  2.500000e+00
P1dr  TDA1  1  3.950000e-01  2.500000e+00
N6dr  TDA1  1  3.950000e-01  2.700000e+00
N5dr  TDA1  1  3.950000e-01  2.700000e+00
N4dr  TDA1  1  3.950000e-01  2.700000e+00
N3dr  TDA1  1  3.950000e-01  2.700000e+00
P6ar  TDA1  1  3.950000e-01  2.110000e+00
P5ar  TDA1  1  3.950000e-01  2.110000e+00
P4ar  TDA1  1  3.950000e-01  2.110000e+00
P3ar  TDA1  1  3.950000e-01  2.110000e+00
P2ar  TDA1  1  3.950000e-01  2.110000e+00
P1ar  TDA1  1  3.950000e-01  2.110000e+00
N6ar  TDA1  1  3.950000e-01  2.310000e+00
N5ar  TDA1  1  3.950000e-01  2.310000e+00
N4ar  TDA1  1  3.950000e-01  2.310000e+00
TDA1  N2a  1  3.950000e-01  2.310000e+00
TDA1  N1a  1  3.950000e-01  2.110000e+00
TDA1  N2d  1  3.950000e-01  2.700000e+00
TDA1  N1d  1  3.950000e-01  2.500000e+00
TDA1  C6v  1  3.950000e-01  2.500000e+00
TDA1  C5v  1  3.950000e-01  2.310000e+00
TDA1  C4v  1  3.950000e-01  2.310000e+00
TDA1  C3v  1  3.950000e-01  2.110000e+00
TDA1  C2v  1  3.950000e-01  2.110000e+00
TDA1  C1v  1  3.950000e-01  1.850000e+00
TDA1  X4v  1  3.950000e-01  2.700000e+00
TDA1  X3v  1  3.950000e-01  2.500000e+00
TDA1  X2v  1  3.950000e-01  2.310000e+00
TDA1  X1v  1  3.950000e-01  2.310000e+00
TDA1  C6e  1  3.950000e-01  2.110000e+00
TDA1  C5e  1  3.950000e-01  1.850000e+00
TDA1  C4e  1  3.950000e-01  1.850000e+00
TDA1  C3e  1  3.950000e-01  1.670000e+00
TDA1  C2e  1  3.950000e-01  1.670000e+00
TDA1  C1e  1  3.980000e-01  1.450000e+00
TDA1  X4e  1  3.950000e-01  2.310000e+00
TDA1  X3e  1  3.950000e-01  2.110000e+00
TDA1  X2e  1  3.950000e-01  1.850000e+00
TDA1  X1e  1  3.950000e-01  1.850000e+00
TDA1  N2q  1  3.950000e-01  2.940000e+00
TDA1  N1q  1  3.950000e-01  2.700000e+00
TDA1  C6q  1  3.950000e-01  2.700000e+00
TDA1  C5q  1  3.950000e-01  2.500000e+00
TDA1  C4q  1  3.950000e-01  2.500000e+00
TDA1  C3q  1  3.950000e-01  2.310000e+00
TDA1  C2q  1  3.950000e-01  2.310000e+00
TDA1  C1q  1  3.950000e-01  2.110000e+00
TDA1  X4q  1  3.950000e-01  2.940000e+00
TDA1  X3q  1  3.950000e-01  2.700000e+00
TDA1  X2q  1  3.950000e-01  2.500000e+00
TDA1  X1q  1  3.950000e-01  2.500000e+00
TDA1  N2dq  1  3.950000e-01  3.190000e+00
TDA1  N1dq  1  3.950000e-01  2.940000e+00
TDA1  N3aq  1  3.950000e-01  2.700000e+00
TDA1  X1eq  1  3.950000e-01  2.310000e+00
TDA1  X2eq  1  3.950000e-01  2.310000e+00
TDA1  X3eq  1  3.950000e-01  2.500000e+00
TDA1  X4eq  1  3.950000e-01  2.700000e+00
TDA1  C1eq  1  3.950000e-01  1.850000e+00
TDA1  C2eq  1  3.950000e-01  2.110000e+00
TDA1  C3eq  1  3.950000e-01  2.110000e+00
TDA1  C4eq  1  3.950000e-01  2.310000e+00
TDA1  C5eq  1  3.950000e-01  2.310000e+00
TDA1  C6eq  1  3.950000e-01  2.500000e+00
TDA1  X1vq  1  3.950000e-01  2.700000e+00
TDA1  X2vq  1  3.950000e-01  2.700000e+00
TDA1  X3vq  1  3.950000e-01  2.940000e+00
TDA1  X4vq  1  3.950000e-01  3.190000e+00
TDA1  C1vq  1  3.950000e-01  2.310000e+00
TDA1  C2vq  1  3.950000e-01  2.500000e+00
TDA1  C3vq  1  3.950000e-01  2.500000e+00
TDA1  C4vq  1  3.950000e-01  2.700000e+00
TDA1  C5vq  1  3.950000e-01  2.700000e+00
TDA1  C6vq  1  3.950000e-01  2.940000e+00
TDA1  N1aq  1  3.950000e-01  2.500000e+00
TDA1  N2aq  1  3.950000e-01  2.700000e+00
TDA1  N2h  1  3.950000e-01  2.500000e+00
TDA1  N1h  1  3.950000e-01  2.310000e+00
TDA1  C6h  1  3.950000e-01  2.310000e+00
TDA1  C5h  1  3.950000e-01  2.110000e+00
TDA1  C4h  1  3.950000e-01  2.110000e+00
TDA1  C3h  1  3.950000e-01  1.850000e+00
TDA1  C2h  1  3.950000e-01  1.850000e+00
TDA1  C1h  1  3.950000e-01  1.670000e+00
TDA1  X4h  1  3.950000e-01  2.500000e+00
TDA1  X3h  1  3.950000e-01  2.310000e+00
TDA1  X2h  1  3.950000e-01  2.110000e+00
TDA1  X1h  1  3.950000e-01  2.110000e+00
TDA1  N2dh  1  3.950000e-01  2.700000e+00
TDA1  N1dh  1  3.950000e-01  2.500000e+00
TDA1  N3ah  1  3.950000e-01  2.310000e+00
TDA1  X1eh  1  3.950000e-01  1.850000e+00
TDA1  X2eh  1  3.950000e-01  1.850000e+00
TDA1  X3eh  1  3.950000e-01  2.110000e+00
TDA1  X4eh  1  3.950000e-01  2.310000e+00
TDA1  C1eh  1  3.980000e-01  1.450000e+00
TDA1  C2eh  1  3.950000e-01  1.670000e+00
TDA1  C3eh  1  3.950000e-01  1.670000e+00
TDA1  C4eh  1  3.950000e-01  1.850000e+00
TDA1  C5eh  1  3.950000e-01  1.850000e+00
TDA1  C6eh  1  3.950000e-01  2.110000e+00
TDA1  X1vh  1  3.950000e-01  2.310000e+00
TDA1  X2vh  1  3.950000e-01  2.310000e+00
TDA1  X3vh  1  3.950000e-01  2.500000e+00
TDA1  X4vh  1  3.950000e-01  2.700000e+00
TDA1  C1vh  1  3.950000e-01  1.850000e+00
TDA1  C2vh  1  3.950000e-01  2.110000e+00
TDA1  C3vh  1  3.950000e-01  2.110000e+00
TDA1  C4vh  1  3.950000e-01  2.310000e+00
TDA1  C5vh  1  3.950000e-01  2.310000e+00
TDA1  C6vh  1  3.950000e-01  2.500000e+00
TDA1  N1ah  1  3.950000e-01  2.110000e+00
TDA1  N2ah  1  3.950000e-01  2.310000e+00
TDA1  N2r  1  3.950000e-01  2.500000e+00
TDA1  N1r  1  3.950000e-01  2.310000e+00
TDA1  C6r  1  3.950000e-01  2.310000e+00
TDA1  C5r  1  3.950000e-01  2.110000e+00
TDA1  C4r  1  3.950000e-01  2.110000e+00
TDA1  C3r  1  3.950000e-01  1.850000e+00
TDA1  C2r  1  3.950000e-01  1.850000e+00
TDA1  C1r  1  3.950000e-01  1.670000e+00
TDA1  X4r  1  3.950000e-01  2.500000e+00
TDA1  X3r  1  3.950000e-01  2.310000e+00
TDA1  X2r  1  3.950000e-01  2.110000e+00
TDA1  X1r  1  3.950000e-01  2.110000e+00
TDA1  N2dr  1  3.950000e-01  2.700000e+00
TDA1  N1dr  1  3.950000e-01  2.500000e+00
TDA1  N3ar  1  3.950000e-01  2.310000e+00
TDA1  X1er  1  3.950000e-01  1.850000e+00
TDA1  X2er  1  3.950000e-01  1.850000e+00
TDA1  X3er  1  3.950000e-01  2.110000e+00
TDA1  X4er  1  3.950000e-01  2.310000e+00
TDA1  C1er  1  3.980000e-01  1.450000e+00
TDA1  C2er  1  3.950000e-01  1.670000e+00
TDA1  C3er  1  3.950000e-01  1.670000e+00
TDA1  C4er  1  3.950000e-01  1.850000e+00
TDA1  C5er  1  3.950000e-01  1.850000e+00
TDA1  C6er  1  3.950000e-01  2.110000e+00
TDA1  X1vr  1  3.950000e-01  2.310000e+00
TDA1  X2vr  1  3.950000e-01  2.310000e+00
TDA1  X3vr  1  3.950000e-01  2.500000e+00
TDA1  X4vr  1  3.950000e-01  2.700000e+00
TDA1  C1vr  1  3.950000e-01  1.850000e+00
TDA1  C2vr  1  3.950000e-01  2.110000e+00
TDA1  C3vr  1  3.950000e-01  2.110000e+00
TDA1  C4vr  1  3.950000e-01  2.310000e+00
TDA1  C5vr  1  3.950000e-01  2.310000e+00
TDA1  C6vr  1  3.950000e-01  2.500000e+00
TDA1  N1ar  1  3.950000e-01  2.110000e+00
TDA1  N2ar  1  3.950000e-01  2.310000e+00
TP6d  TDA1  1  3.400000e-01  1.230000e+00
TP5d  TDA1  1  3.400000e-01  1.230000e+00
TP4d  TDA1  1  3.400000e-01  2.280000e+00
TP3d  TDA1  1  3.400000e-01  2.280000e+00
TP2d  TDA1  1  3.400000e-01  2.280000e+00
TP1d  TDA1  1  3.400000e-01  2.280000e+00
TN6d  TDA1  1  3.400000e-01  2.500000e+00
TN5d  TDA1  1  3.400000e-01  2.500000e+00
TN4d  TDA1  1  3.400000e-01  2.500000e+00
TN3d  TDA1  1  3.400000e-01  2.500000e+00
TP6dq  TDA1  1  3.400000e-01  2.280000e+00
TP5dq  TDA1  1  3.400000e-01  2.280000e+00
TP4dq  TDA1  1  3.400000e-01  2.740000e+00
TP3dq  TDA1  1  3.400000e-01  2.740000e+00
TP2dq  TDA1  1  3.400000e-01  2.740000e+00
TP1dq  TDA1  1  3.400000e-01  2.740000e+00
TN6dq  TDA1  1  3.400000e-01  2.990000e+00
TN5dq  TDA1  1  3.400000e-01  2.990000e+00
TN4dq  TDA1  1  3.400000e-01  2.990000e+00
TN3dq  TDA1  1  3.400000e-01  2.990000e+00
TP6dh  TDA1  1  3.400000e-01  1.230000e+00
TP5dh  TDA1  1  3.400000e-01  1.230000e+00
TP4dh  TDA1  1  3.400000e-01  2.280000e+00
TP3dh  TDA1  1  3.400000e-01  2.280000e+00
TP2dh  TDA1  1  3.400000e-01  2.280000e+00
TP1dh  TDA1  1  3.400000e-01  2.280000e+00
TN6dh  TDA1  1  3.400000e-01  2.500000e+00
TN5dh  TDA1  1  3.400000e-01  2.500000e+00
TN4dh  TDA1  1  3.400000e-01  2.500000e+00
TN3dh  TDA1  1  3.400000e-01  2.500000e+00
TP6dr  TDA1  1  3.400000e-01  1.230000e+00
TP5dr  TDA1  1  3.400000e-01  1.230000e+00
TP4dr  TDA1  1  3.400000e-01  2.280000e+00
TP3dr  TDA1  1  3.400000e-01  2.280000e+00
TP2dr  TDA1  1  3.400000e-01  2.280000e+00
TP1dr  TDA1  1  3.400000e-01  2.280000e+00
TN6dr  TDA1  1  3.400000e-01  2.500000e+00
TN5dr  TDA1  1  3.400000e-01  2.500000e+00
TN4dr  TDA1  1  3.400000e-01  2.500000e+00
TN3dr  TDA1  1  3.400000e-01  2.500000e+00
TDA1  TN2d  1  3.400000e-01  2.500000e+00
TDA1  TN1d  1  3.400000e-01  2.280000e+00
TDA1  TN2dq  1  3.400000e-01  2.990000e+00
TDA1  TN1dq  1  3.400000e-01  2.740000e+00
TDA1  TN2dh  1  3.400000e-01  2.500000e+00
TDA1  TN1dh  1  3.400000e-01  2.280000e+00
TDA1  TN2dr  1  3.400000e-01  2.500000e+00
TDA1  TN1dr  1  3.400000e-01  2.280000e+00
TDA1  TC6v  1  3.400000e-01  1.770000e+00
TDA1  TC5v  1  3.400000e-01  1.510000e+00
TDA1  TC4v  1  3.400000e-01  1.510000e+00
TDA1  TC3v  1  3.400000e-01  1.230000e+00
TDA1  TC2v  1  3.400000e-01  1.230000e+00
TDA1  TC1v  1  3.520000e-01  1.050000e+00
TDA1  TX4v  1  3.400000e-01  2.020000e+00
TDA1  TX3v  1  3.400000e-01  1.770000e+00
TDA1  TX2v  1  3.400000e-01  1.510000e+00
TDA1  TX1v  1  3.400000e-01  1.510000e+00
TDA1  TX1vq  1  3.400000e-01  2.020000e+00
TDA1  TX2vq  1  3.400000e-01  2.020000e+00
TDA1  TX3vq  1  3.400000e-01  2.280000e+00
TDA1  TX4vq  1  3.400000e-01  2.500000e+00
TDA1  TC1vq  1  3.400000e-01  1.510000e+00
TDA1  TC2vq  1  3.400000e-01  1.770000e+00
TDA1  TC3vq  1  3.400000e-01  1.770000e+00
TDA1  TC4vq  1  3.400000e-01  2.020000e+00
TDA1  TC5vq  1  3.400000e-01  2.020000e+00
TDA1  TC6vq  1  3.400000e-01  2.280000e+00
TDA1  TX1vh  1  3.400000e-01  1.510000e+00
TDA1  TX2vh  1  3.400000e-01  1.510000e+00
TDA1  TX3vh  1  3.400000e-01  1.770000e+00
TDA1  TX4vh  1  3.400000e-01  2.020000e+00
TDA1  TC1vh  1  3.520000e-01  1.050000e+00
TDA1  TC2vh  1  3.400000e-01  1.230000e+00
TDA1  TC3vh  1  3.400000e-01  1.230000e+00
TDA1  TC4vh  1  3.400000e-01  1.510000e+00
TDA1  TC5vh  1  3.400000e-01  1.510000e+00
TDA1  TC6vh  1  3.400000e-01  1.770000e+00
TDA1  TX1vr  1  3.400000e-01  1.510000e+00
TDA1  TX2vr  1  3.400000e-01  1.510000e+00
TDA1  TX3vr  1  3.400000e-01  1.770000e+00
TDA1  TX4vr  1  3.400000e-01  2.020000e+00
TDA1  TC1vr  1  3.520000e-01  1.050000e+00
TDA1  TC2vr  1  3.400000e-01  1.230000e+00
TDA1  TC3vr  1  3.400000e-01  1.230000e+00
TDA1  TC4vr  1  3.400000e-01  1.510000e+00
TDA1  TC5vr  1  3.400000e-01  1.510000e+00
TDA1  TC6vr  1  3.400000e-01  1.770000e+00
TDA1  TC6e  1  3.400000e-01  1.230000e+00
TDA1  TC5e  1  3.520000e-01  1.050000e+00
TDA1  TC4e  1  3.520000e-01  1.050000e+00
TDA1  TC3e  1  3.660000e-01  9.350000e-01
TDA1  TC2e  1  3.660000e-01  9.350000e-01
TDA1  TC1e  1  3.850000e-01  8.550000e-01
TDA1  TX4e  1  3.400000e-01  1.510000e+00
TDA1  TX3e  1  3.400000e-01  1.230000e+00
TDA1  TX2e  1  3.520000e-01  1.050000e+00
TDA1  TX1e  1  3.520000e-01  1.050000e+00
TDA1  TX1eq  1  3.400000e-01  1.510000e+00
TDA1  TX2eq  1  3.400000e-01  1.510000e+00
TDA1  TX3eq  1  3.400000e-01  1.770000e+00
TDA1  TX4eq  1  3.400000e-01  2.020000e+00
TDA1  TC1eq  1  3.520000e-01  1.050000e+00
TDA1  TC2eq  1  3.400000e-01  1.230000e+00
TDA1  TC3eq  1  3.400000e-01  1.230000e+00
TDA1  TC4eq  1  3.400000e-01  1.510000e+00
TDA1  TC5eq  1  3.400000e-01  1.510000e+00
TDA1  TC6eq  1  3.400000e-01  1.770000e+00
TDA1  TX1eh  1  3.520000e-01  1.050000e+00
TDA1  TX2eh  1  3.520000e-01  1.050000e+00
TDA1  TX3eh  1  3.400000e-01  1.230000e+00
TDA1  TX4eh  1  3.400000e-01  1.510000e+00
TDA1  TC1eh  1  3.850000e-01  8.550000e-01
TDA1  TC2eh  1  3.660000e-01  9.350000e-01
TDA1  TC3eh  1  3.660000e-01  9.350000e-01
TDA1  TC4eh  1  3.520000e-01  1.050000e+00
TDA1  TC5eh  1  3.520000e-01  1.050000e+00
TDA1  TC6eh  1  3.400000e-01  1.230000e+00
TDA1  TX1er  1  3.520000e-01  1.050000e+00
TDA1  TX2er  1  3.520000e-01  1.050000e+00
TDA1  TX3er  1  3.400000e-01  1.230000e+00
TDA1  TX4er  1  3.400000e-01  1.510000e+00
TDA1  TC1er  1  3.850000e-01  8.550000e-01
TDA1  TC2er  1  3.660000e-01  9.350000e-01
TDA1  TC3er  1  3.660000e-01  9.350000e-01
TDA1  TC4er  1  3.520000e-01  1.050000e+00
TDA1  TC5er  1  3.520000e-01  1.050000e+00
TDA1  TC6er  1  3.400000e-01  1.230000e+00
TDA1  TN3aq  1  3.400000e-01  2.020000e+00
TDA1  TN1aq  1  3.400000e-01  1.770000e+00
TDA1  TN2aq  1  3.400000e-01  2.020000e+00
TDA1  TN3ah  1  3.400000e-01  1.510000e+00
TDA1  TN1ah  1  3.400000e-01  1.230000e+00
TDA1  TN2ah  1  3.400000e-01  1.510000e+00
TDA1  TN3ar  1  3.400000e-01  1.510000e+00
TDA1  TN1ar  1  3.400000e-01  1.230000e+00
TDA1  TN2ar  1  3.400000e-01  1.510000e+00
TP6a  TDA1  1  3.400000e-01  1.230000e+00
TP5a  TDA1  1  3.400000e-01  1.230000e+00
TP4a  TDA1  1  3.400000e-01  1.230000e+00
TP3a  TDA1  1  3.400000e-01  1.230000e+00
TP2a  TDA1  1  3.400000e-01  1.230000e+00
TP1a  TDA1  1  3.400000e-01  1.230000e+00
TN6a  TDA1  1  3.400000e-01  1.510000e+00
TN5a  TDA1  1  3.400000e-01  1.510000e+00
TN4a  TDA1  1  3.400000e-01  1.510000e+00
TDA1  TN3a  1  3.400000e-01  1.510000e+00
TDA1  TN2a  1  3.400000e-01  1.510000e+00
TDA1  TN1a  1  3.400000e-01  1.230000e+00
TP6q  TDA1  1  3.400000e-01  1.770000e+00
TP5q  TDA1  1  3.400000e-01  1.770000e+00
TP4q  TDA1  1  3.400000e-01  2.020000e+00
TP3q  TDA1  1  3.400000e-01  2.020000e+00
TP2q  TDA1  1  3.400000e-01  2.020000e+00
TP1q  TDA1  1  3.400000e-01  2.020000e+00
TN6q  TDA1  1  3.400000e-01  2.280000e+00
TN5q  TDA1  1  3.400000e-01  2.280000e+00
TN4q  TDA1  1  3.400000e-01  2.280000e+00
TN3q  TDA1  1  3.400000e-01  2.280000e+00
TDA1  TN2q  1  3.400000e-01  2.280000e+00
TDA1  TN1q  1  3.400000e-01  2.020000e+00
TDA1  TC6q  1  3.400000e-01  2.020000e+00
TDA1  TC5q  1  3.400000e-01  1.770000e+00
TDA1  TC4q  1  3.400000e-01  1.770000e+00
TDA1  TC3q  1  3.400000e-01  1.510000e+00
TDA1  TC2q  1  3.400000e-01  1.510000e+00
TDA1  TC1q  1  3.400000e-01  1.230000e+00
TDA1  TX4q  1  3.400000e-01  2.280000e+00
TDA1  TX3q  1  3.400000e-01  2.020000e+00
TDA1  TX2q  1  3.400000e-01  1.770000e+00
TDA1  TX1q  1  3.400000e-01  1.770000e+00
TP6h  TDA1  1  3.400000e-01  1.230000e+00
TP5h  TDA1  1  3.400000e-01  1.230000e+00
TP4h  TDA1  1  3.400000e-01  1.510000e+00
TP3h  TDA1  1  3.400000e-01  1.510000e+00
TP2h  TDA1  1  3.400000e-01  1.510000e+00
TP1h  TDA1  1  3.400000e-01  1.510000e+00
TN6h  TDA1  1  3.400000e-01  1.770000e+00
TN5h  TDA1  1  3.400000e-01  1.770000e+00
TN4h  TDA1  1  3.400000e-01  1.770000e+00
TN3h  TDA1  1  3.400000e-01  1.770000e+00
TDA1  TN2h  1  3.400000e-01  1.770000e+00
TDA1  TN1h  1  3.400000e-01  1.510000e+00
TDA1  TC6h  1  3.400000e-01  1.510000e+00
TDA1  TC5h  1  3.400000e-01  1.230000e+00
TDA1  TC4h  1  3.400000e-01  1.230000e+00
TDA1  TC3h  1  3.520000e-01  1.050000e+00
TDA1  TC2h  1  3.520000e-01  1.050000e+00
TDA1  TC1h  1  3.660000e-01  9.350000e-01
TDA1  TX4h  1  3.400000e-01  1.770000e+00
TDA1  TX3h  1  3.400000e-01  1.510000e+00
TDA1  TX2h  1  3.400000e-01  1.230000e+00
TDA1  TX1h  1  3.400000e-01  1.230000e+00
TP6r  TDA1  1  3.400000e-01  1.230000e+00
TP5r  TDA1  1  3.400000e-01  1.230000e+00
TP4r  TDA1  1  3.400000e-01  1.510000e+00
TP3r  TDA1  1  3.400000e-01  1.510000e+00
TP2r  TDA1  1  3.400000e-01  1.510000e+00
TP1r  TDA1  1  3.400000e-01  1.510000e+00
TN6r  TDA1  1  3.400000e-01  1.770000e+00
TN5r  TDA1  1  3.400000e-01  1.770000e+00
TN4r  TDA1  1  3.400000e-01  1.770000e+00
TN3r  TDA1  1  3.400000e-01  1.770000e+00
TDA1  TN2r  1  3.400000e-01  1.770000e+00
TDA1  TN1r  1  3.400000e-01  1.510000e+00
TDA1  TC6r  1  3.400000e-01  1.510000e+00
TDA1  TC5r  1  3.400000e-01  1.230000e+00
TDA1  TC4r  1  3.400000e-01  1.230000e+00
TDA1  TC3r  1  3.520000e-01  1.050000e+00
TDA1  TC2r  1  3.520000e-01  1.050000e+00
TDA1  TC1r  1  3.660000e-01  9.350000e-01
TDA1  TX4r  1  3.400000e-01  1.770000e+00
TDA1  TX3r  1  3.400000e-01  1.510000e+00
TDA1  TX2r  1  3.400000e-01  1.230000e+00
TDA1  TX1r  1  3.400000e-01  1.230000e+00
TP6aq  TDA1  1  3.400000e-01  1.770000e+00
TP5aq  TDA1  1  3.400000e-01  1.770000e+00
TP4aq  TDA1  1  3.400000e-01  1.770000e+00
TP3aq  TDA1  1  3.400000e-01  1.770000e+00
TP2aq  TDA1  1  3.400000e-01  1.770000e+00
TP1aq  TDA1  1  3.400000e-01  1.770000e+00
TN6aq  TDA1  1  3.400000e-01  2.020000e+00
TN5aq  TDA1  1  3.400000e-01  2.020000e+00
TN4aq  TDA1  1  3.400000e-01  2.020000e+00
TP6ah  TDA1  1  3.400000e-01  1.230000e+00
TP5ah  TDA1  1  3.400000e-01  1.230000e+00
TP4ah  TDA1  1  3.400000e-01  1.230000e+00
TP3ah  TDA1  1  3.400000e-01  1.230000e+00
TP2ah  TDA1  1  3.400000e-01  1.230000e+00
TP1ah  TDA1  1  3.400000e-01  1.230000e+00
TN6ah  TDA1  1  3.400000e-01  1.510000e+00
TN5ah  TDA1  1  3.400000e-01  1.510000e+00
TN4ah  TDA1  1  3.400000e-01  1.510000e+00
TP6ar  TDA1  1  3.400000e-01  1.230000e+00
TP5ar  TDA1  1  3.400000e-01  1.230000e+00
TP4ar  TDA1  1  3.400000e-01  1.230000e+00
TP3ar  TDA1  1  3.400000e-01  1.230000e+00
TP2ar  TDA1  1  3.400000e-01  1.230000e+00
TP1ar  TDA1  1  3.400000e-01  1.230000e+00
TN6ar  TDA1  1  3.400000e-01  1.510000e+00
TN5ar  TDA1  1  3.400000e-01  1.510000e+00
TN4ar  TDA1  1  3.400000e-01  1.510000e+00
W  TDA1  1  3.850000e-01  2.510000e+00
SW  TDA1  1  3.750000e-01  1.870000e+00
TW  TDA1  1  3.450000e-01  1.910000e+00
TDA1  D  1  3.950000e-01  3.963000e+00
TDA1  SD  1  3.650000e-01  9.083000e+00
TDA1  TD  1  3.400000e-01  1.073700e+01
TDA1  Q5  1  3.950000e-01  3.516000e+00
TDA1  SQ5  1  3.650000e-01  4.617000e+00
TDA1  TQ5  1  3.400000e-01  6.431000e+00
TDA1  Q5p  1  3.950000e-01  3.996000e+00
TDA1  SQ5p  1  3.650000e-01  5.157000e+00
TDA1  TQ5p  1  3.400000e-01  7.151000e+00
TDA1  Q5n  1  3.950000e-01  3.266000e+00
TDA1  SQ5n  1  3.650000e-01  4.357000e+00
TDA1  TQ5n  1  3.400000e-01  6.211000e+00
TDA1  Q4  1  3.950000e-01  3.277000e+00
TDA1  SQ4  1  3.650000e-01  4.419000e+00
TDA1  TQ4  1  3.400000e-01  6.348000e+00
TDA1  Q4p  1  3.950000e-01  3.767000e+00
TDA1  SQ4p  1  3.650000e-01  4.949000e+00
TDA1  TQ4p  1  3.400000e-01  7.058000e+00
TDA1  Q4n  1  3.950000e-01  3.037000e+00
TDA1  SQ4n  1  3.650000e-01  4.189000e+00
TDA1  TQ4n  1  3.400000e-01  6.088000e+00
TDA1  Q3  1  3.950000e-01  3.304000e+00
TDA1  SQ3  1  3.650000e-01  4.566000e+00
TDA1  TQ3  1  3.400000e-01  6.671000e+00
TDA1  Q3p  1  3.950000e-01  3.794000e+00
TDA1  SQ3p  1  3.650000e-01  5.096000e+00
TDA1  TQ3p  1  3.400000e-01  7.381000e+00
TDA1  Q3n  1  3.950000e-01  3.064000e+00
TDA1  SQ3n  1  3.650000e-01  4.336000e+00
TDA1  TQ3n  1  3.400000e-01  6.411000e+00
TDA1  Q2  1  3.950000e-01  3.322000e+00
TDA1  SQ2  1  3.650000e-01  4.669000e+00
TDA1  TQ2  1  3.400000e-01  6.897000e+00
TDA1  Q2p  1  3.950000e-01  3.812000e+00
TDA1  SQ2p  1  3.650000e-01  5.199000e+00
TDA1  TQ2p  1  3.400000e-01  7.607000e+00
TDA1  Q2n  1  3.950000e-01  3.082000e+00
TDA1  SQ2n  1  3.650000e-01  4.439000e+00
TDA1  TQ2n  1  3.400000e-01  6.637000e+00
TDA1  Q1  1  3.950000e-01  3.587000e+00
TDA1  SQ1  1  3.650000e-01  5.011000e+00
TDA1  TQ1  1  3.400000e-01  7.298000e+00
TDA1  Q1p  1  3.950000e-01  4.067000e+00
TDA1  SQ1p  1  3.650000e-01  5.551000e+00
TDA1  TQ1p  1  3.400000e-01  8.018000e+00
TDA1  Q1n  1  3.950000e-01  3.337000e+00
TDA1  SQ1n  1  3.650000e-01  4.751000e+00
TDA1  TQ1n  1  3.400000e-01  7.078000e+00
P6  TDA2  1  3.950000e-01  2.500000e+00
SP6  TDA2  1  3.650000e-01  2.110000e+00
TP6  TDA2  1  3.400000e-01  1.770000e+00
P5  TDA2  1  3.950000e-01  2.500000e+00
SP5  TDA2  1  3.650000e-01  2.110000e+00
TP5  TDA2  1  3.400000e-01  1.770000e+00
P4  TDA2  1  3.950000e-01  2.500000e+00
SP4  TDA2  1  3.650000e-01  2.110000e+00
TP4  TDA2  1  3.400000e-01  1.770000e+00
P3  TDA2  1  3.950000e-01  2.500000e+00
SP3  TDA2  1  3.650000e-01  2.110000e+00
TP3  TDA2  1  3.400000e-01  1.770000e+00
P2  TDA2  1  3.950000e-01  2.700000e+00
SP2  TDA2  1  3.650000e-01  2.340000e+00
TP2  TDA2  1  3.400000e-01  2.020000e+00
P1  TDA2  1  3.950000e-01  2.700000e+00
SP1  TDA2  1  3.650000e-01  2.340000e+00
TP1  TDA2  1  3.400000e-01  2.020000e+00
N6  TDA2  1  3.950000e-01  2.940000e+00
SN6  TDA2  1  3.650000e-01  2.570000e+00
TN6  TDA2  1  3.400000e-01  2.280000e+00
N5  TDA2  1  3.950000e-01  2.700000e+00
SN5  TDA2  1  3.650000e-01  2.340000e+00
TN5  TDA2  1  3.400000e-01  2.020000e+00
TDA2  N4  1  3.950000e-01  2.700000e+00
TDA2  SN4  1  3.650000e-01  2.340000e+00
TDA2  TN4  1  3.400000e-01  2.020000e+00
TDA2  N3  1  3.950000e-01  2.500000e+00
TDA2  SN3  1  3.650000e-01  2.110000e+00
TDA2  TN3  1  3.400000e-01  1.770000e+00
TDA2  N2  1  3.950000e-01  2.500000e+00
TDA2  SN2  1  3.650000e-01  2.110000e+00
TDA2  TN2  1  3.400000e-01  1.770000e+00
TDA2  N1  1  3.950000e-01  2.310000e+00
TDA2  SN1  1  3.650000e-01  1.910000e+00
TDA2  TN1  1  3.400000e-01  1.510000e+00
TDA2  C6  1  3.950000e-01  2.310000e+00
TDA2  SC6  1  3.650000e-01  1.910000e+00
TDA2  TC6  1  3.400000e-01  1.510000e+00
TDA2  C5  1  3.950000e-01  2.110000e+00
TDA2  SC5  1  3.650000e-01  1.750000e+00
TDA2  TC5  1  3.400000e-01  1.230000e+00
TDA2  C4  1  3.950000e-01  1.850000e+00
TDA2  SC4  1  3.660000e-01  1.600000e+00
TDA2  TC4  1  3.520000e-01  1.050000e+00
TDA2  C3  1  3.950000e-01  1.850000e+00
TDA2  SC3  1  3.660000e-01  1.600000e+00
TDA2  TC3  1  3.520000e-01  1.050000e+00
TDA2  C2  1  3.950000e-01  1.670000e+00
TDA2  SC2  1  3.780000e-01  1.450000e+00
TDA2  TC2  1  3.660000e-01  9.350000e-01
TDA2  C1  1  3.980000e-01  1.450000e+00
TDA2  SC1  1  3.940000e-01  1.290000e+00
TDA2  TC1  1  3.850000e-01  8.550000e-01
TDA2  X4  1  3.950000e-01  2.500000e+00
TDA2  SX4  1  3.650000e-01  2.110000e+00
TDA2  TX4  1  3.400000e-01  1.770000e+00
TDA2  X3  1  3.950000e-01  2.310000e+00
TDA2  SX3  1  3.650000e-01  1.910000e+00
TDA2  TX3  1  3.400000e-01  1.510000e+00
TDA2  X2  1  3.950000e-01  2.110000e+00
TDA2  SX2  1  3.650000e-01  1.750000e+00
TDA2  TX2  1  3.400000e-01  1.230000e+00
TDA2  X1  1  3.950000e-01  1.850000e+00
TDA2  SX1  1  3.660000e-01  1.600000e+00
TDA2  TX1  1  3.520000e-01  1.050000e+00
SP6a  TDA2  1  3.650000e-01  1.910000e+00
SP5a  TDA2  1  3.650000e-01  1.910000e+00
SP4a  TDA2  1  3.650000e-01  1.910000e+00
SP3a  TDA2  1  3.650000e-01  1.910000e+00
SP2a  TDA2  1  3.650000e-01  2.110000e+00
SP1a  TDA2  1  3.650000e-01  2.110000e+00
SN6a  TDA2  1  3.650000e-01  2.340000e+00
SN5a  TDA2  1  3.650000e-01  2.110000e+00
SP6d  TDA2  1  3.650000e-01  2.340000e+00
SP5d  TDA2  1  3.650000e-01  2.340000e+00
SP4d  TDA2  1  3.650000e-01  2.340000e+00
SP3d  TDA2  1  3.650000e-01  2.340000e+00
SP2d  TDA2  1  3.650000e-01  2.570000e+00
SP1d  TDA2  1  3.650000e-01  2.570000e+00
SN6d  TDA2  1  3.650000e-01  2.830000e+00
SN5d  TDA2  1  3.650000e-01  2.570000e+00
SP6q  TDA2  1  3.650000e-01  2.570000e+00
SP5q  TDA2  1  3.650000e-01  2.570000e+00
SP4q  TDA2  1  3.650000e-01  2.570000e+00
SP3q  TDA2  1  3.650000e-01  2.570000e+00
SP2q  TDA2  1  3.650000e-01  2.830000e+00
SP1q  TDA2  1  3.650000e-01  2.830000e+00
SN6q  TDA2  1  3.650000e-01  3.100000e+00
SN5q  TDA2  1  3.650000e-01  2.830000e+00
SP6h  TDA2  1  3.650000e-01  2.110000e+00
SP5h  TDA2  1  3.650000e-01  2.110000e+00
SP4h  TDA2  1  3.650000e-01  2.110000e+00
SP3h  TDA2  1  3.650000e-01  2.110000e+00
SP2h  TDA2  1  3.650000e-01  2.340000e+00
SP1h  TDA2  1  3.650000e-01  2.340000e+00
SN6h  TDA2  1  3.650000e-01  2.570000e+00
SN5h  TDA2  1  3.650000e-01  2.340000e+00
SP6r  TDA2  1  3.650000e-01  2.110000e+00
SP5r  TDA2  1  3.650000e-01  2.110000e+00
SP4r  TDA2  1  3.650000e-01  2.110000e+00
SP3r  TDA2  1  3.650000e-01  2.110000e+00
SP2r  TDA2  1  3.650000e-01  2.340000e+00
SP1r  TDA2  1  3.650000e-01  2.340000e+00
SN6r  TDA2  1  3.650000e-01  2.570000e+00
SN5r  TDA2  1  3.650000e-01  2.340000e+00
SP6dq  TDA2  1  3.650000e-01  2.830000e+00
SP5dq  TDA2  1  3.650000e-01  2.830000e+00
SP4dq  TDA2  1  3.650000e-01  2.830000e+00
SP3dq  TDA2  1  3.650000e-01  2.830000e+00
SP2dq  TDA2  1  3.650000e-01  3.100000e+00
SP1dq  TDA2  1  3.650000e-01  3.100000e+00
SN6dq  TDA2  1  3.650000e-01  3.370000e+00
SN5dq  TDA2  1  3.650000e-01  3.100000e+00
SP6aq  TDA2  1  3.650000e-01  2.340000e+00
SP5aq  TDA2  1  3.650000e-01  2.340000e+00
SP4aq  TDA2  1  3.650000e-01  2.340000e+00
SP3aq  TDA2  1  3.650000e-01  2.340000e+00
SP2aq  TDA2  1  3.650000e-01  2.570000e+00
SP1aq  TDA2  1  3.650000e-01  2.570000e+00
SN6aq  TDA2  1  3.650000e-01  2.830000e+00
SP6dh  TDA2  1  3.650000e-01  2.340000e+00
SP5dh  TDA2  1  3.650000e-01  2.340000e+00
SP4dh  TDA2  1  3.650000e-01  2.340000e+00
SP3dh  TDA2  1  3.650000e-01  2.340000e+00
SP2dh  TDA2  1  3.650000e-01  2.570000e+00
SP1dh  TDA2  1  3.650000e-01  2.570000e+00
SN6dh  TDA2  1  3.650000e-01  2.830000e+00
SN5dh  TDA2  1  3.650000e-01  2.570000e+00
SP6ah  TDA2  1  3.650000e-01  1.910000e+00
SP5ah  TDA2  1  3.650000e-01  1.910000e+00
SP4ah  TDA2  1  3.650000e-01  1.910000e+00
SP3ah  TDA2  1  3.650000e-01  1.910000e+00
SP2ah  TDA2  1  3.650000e-01  2.110000e+00
SP1ah  TDA2  1  3.650000e-01  2.110000e+00
SN6ah  TDA2  1  3.650000e-01  2.340000e+00
SP6dr  TDA2  1  3.650000e-01  2.340000e+00
SP5dr  TDA2  1  3.650000e-01  2.340000e+00
SP4dr  TDA2  1  3.650000e-01  2.340000e+00
SP3dr  TDA2  1  3.650000e-01  2.340000e+00
SP2dr  TDA2  1  3.650000e-01  2.570000e+00
SP1dr  TDA2  1  3.650000e-01  2.570000e+00
SN6dr  TDA2  1  3.650000e-01  2.830000e+00
SN5dr  TDA2  1  3.650000e-01  2.570000e+00
SP6ar  TDA2  1  3.650000e-01  1.910000e+00
SP5ar  TDA2  1  3.650000e-01  1.910000e+00
SP4ar  TDA2  1  3.650000e-01  1.910000e+00
SP3ar  TDA2  1  3.650000e-01  1.910000e+00
SP2ar  TDA2  1  3.650000e-01  2.110000e+00
SP1ar  TDA2  1  3.650000e-01  2.110000e+00
SN6ar  TDA2  1  3.650000e-01  2.340000e+00
TDA2  SN4dq  1  3.650000e-01  3.100000e+00
TDA2  SN3dq  1  3.650000e-01  2.830000e+00
TDA2  SN2dq  1  3.650000e-01  2.830000e+00
TDA2  SN1dq  1  3.650000e-01  2.570000e+00
TDA2  SN5aq  1  3.650000e-01  2.570000e+00
TDA2  SX1eq  1  3.650000e-01  1.750000e+00
TDA2  SX2eq  1  3.650000e-01  1.910000e+00
TDA2  SX3eq  1  3.650000e-01  2.110000e+00
TDA2  SX4eq  1  3.650000e-01  2.340000e+00
TDA2  SC1eq  1  3.780000e-01  1.450000e+00
TDA2  SC2eq  1  3.660000e-01  1.600000e+00
TDA2  SC3eq  1  3.650000e-01  1.750000e+00
TDA2  SC4eq  1  3.650000e-01  1.750000e+00
TDA2  SC5eq  1  3.650000e-01  1.910000e+00
TDA2  SC6eq  1  3.650000e-01  2.110000e+00
TDA2  SX1vq  1  3.650000e-01  2.110000e+00
TDA2  SX2vq  1  3.650000e-01  2.340000e+00
TDA2  SX3vq  1  3.650000e-01  2.570000e+00
TDA2  SX4vq  1  3.650000e-01  2.830000e+00
TDA2  SC1vq  1  3.650000e-01  1.750000e+00
TDA2  SC2vq  1  3.650000e-01  1.910000e+00
TDA2  SC3vq  1  3.650000e-01  2.110000e+00
TDA2  SC4vq  1  3.650000e-01  2.110000e+00
TDA2  SC5vq  1  3.650000e-01  2.340000e+00
TDA2  SC6vq  1  3.650000e-01  2.570000e+00
TDA2  SN1aq  1  3.650000e-01  2.110000e+00
TDA2  SN2aq  1  3.650000e-01  2.340000e+00
TDA2  SN3aq  1  3.650000e-01  2.340000e+00
TDA2  SN4aq  1  3.650000e-01  2.570000e+00
TDA2  SN4dh  1  3.650000e-01  2.570000e+00
TDA2  SN3dh  1  3.650000e-01  2.340000e+00
TDA2  SN2dh  1  3.650000e-01  2.340000e+00
TDA2  SN1dh  1  3.650000e-01  2.110000e+00
TDA2  SN5ah  1  3.650000e-01  2.110000e+00
TDA2  SX1eh  1  3.780000e-01  1.450000e+00
TDA2  SX2eh  1  3.660000e-01  1.600000e+00
TDA2  SX3eh  1  3.650000e-01  1.750000e+00
TDA2  SX4eh  1  3.650000e-01  1.910000e+00
TDA2  SC1eh  1  4.040000e-01  1.130000e+00
TDA2  SC2eh  1  3.940000e-01  1.290000e+00
TDA2  SC3eh  1  3.780000e-01  1.450000e+00
TDA2  SC4eh  1  3.780000e-01  1.450000e+00
TDA2  SC5eh  1  3.660000e-01  1.600000e+00
TDA2  SC6eh  1  3.650000e-01  1.750000e+00
TDA2  SX1vh  1  3.650000e-01  1.750000e+00
TDA2  SX2vh  1  3.650000e-01  1.910000e+00
TDA2  SX3vh  1  3.650000e-01  2.110000e+00
TDA2  SX4vh  1  3.650000e-01  2.340000e+00
TDA2  SC1vh  1  3.780000e-01  1.450000e+00
TDA2  SC2vh  1  3.660000e-01  1.600000e+00
TDA2  SC3vh  1  3.650000e-01  1.750000e+00
TDA2  SC4vh  1  3.650000e-01  1.750000e+00
TDA2  SC5vh  1  3.650000e-01  1.910000e+00
TDA2  SC6vh  1  3.650000e-01  2.110000e+00
TDA2  SN1ah  1  3.650000e-01  1.750000e+00
TDA2  SN2ah  1  3.650000e-01  1.910000e+00
TDA2  SN3ah  1  3.650000e-01  1.910000e+00
TDA2  SN4ah  1  3.650000e-01  2.110000e+00
TDA2  SN4dr  1  3.650000e-01  2.570000e+00
TDA2  SN3dr  1  3.650000e-01  2.340000e+00
TDA2  SN2dr  1  3.650000e-01  2.340000e+00
TDA2  SN1dr  1  3.650000e-01  2.110000e+00
TDA2  SN5ar  1  3.650000e-01  2.110000e+00
TDA2  SX1er  1  3.780000e-01  1.450000e+00
TDA2  SX2er  1  3.660000e-01  1.600000e+00
TDA2  SX3er  1  3.650000e-01  1.750000e+00
TDA2  SX4er  1  3.650000e-01  1.910000e+00
TDA2  SC1er  1  4.040000e-01  1.130000e+00
TDA2  SC2er  1  3.940000e-01  1.290000e+00
TDA2  SC3er  1  3.780000e-01  1.450000e+00
TDA2  SC4er  1  3.780000e-01  1.450000e+00
TDA2  SC5er  1  3.660000e-01  1.600000e+00
TDA2  SC6er  1  3.650000e-01  1.750000e+00
TDA2  SX1vr  1  3.650000e-01  1.750000e+00
TDA2  SX2vr  1  3.650000e-01  1.910000e+00
TDA2  SX3vr  1  3.650000e-01  2.110000e+00
TDA2  SX4vr  1  3.650000e-01  2.340000e+00
TDA2  SC1vr  1  3.780000e-01  1.450000e+00
TDA2  SC2vr  1  3.660000e-01  1.600000e+00
TDA2  SC3vr  1  3.650000e-01  1.750000e+00
TDA2  SC4vr  1  3.650000e-01  1.750000e+00
TDA2  SC5vr  1  3.650000e-01  1.910000e+00
TDA2  SC6vr  1  3.650000e-01  2.110000e+00
TDA2  SN1ar  1  3.650000e-01  1.750000e+00
TDA2  SN2ar  1  3.650000e-01  1.910000e+00
TDA2  SN3ar  1  3.650000e-01  1.910000e+00
TDA2  SN4ar  1  3.650000e-01  2.110000e+00
TDA2  SN4a  1  3.650000e-01  2.110000e+00
TDA2  SN3a  1  3.650000e-01  1.910000e+00
TDA2  SN2a  1  3.650000e-01  1.910000e+00
TDA2  SN1a  1  3.650000e-01  1.750000e+00
TDA2  SN4d  1  3.650000e-01  2.570000e+00
TDA2  SN3d  1  3.650000e-01  2.340000e+00
TDA2  SN2d  1  3.650000e-01  2.340000e+00
TDA2  SN1d  1  3.650000e-01  2.110000e+00
TDA2  SC6v  1  3.650000e-01  2.110000e+00
TDA2  SC5v  1  3.650000e-01  1.910000e+00
TDA2  SC4v  1  3.650000e-01  1.750000e+00
TDA2  SC3v  1  3.650000e-01  1.750000e+00
TDA2  SC2v  1  3.660000e-01  1.600000e+00
TDA2  SC1v  1  3.780000e-01  1.450000e+00
TDA2  SX4v  1  3.650000e-01  2.340000e+00
TDA2  SX3v  1  3.650000e-01  2.110000e+00
TDA2  SX2v  1  3.650000e-01  1.910000e+00
TDA2  SX1v  1  3.650000e-01  1.750000e+00
TDA2  SC6e  1  3.650000e-01  1.750000e+00
TDA2  SC5e  1  3.660000e-01  1.600000e+00
TDA2  SC4e  1  3.780000e-01  1.450000e+00
TDA2  SC3e  1  3.780000e-01  1.450000e+00
TDA2  SC2e  1  3.940000e-01  1.290000e+00
TDA2  SC1e  1  4.040000e-01  1.130000e+00
TDA2  SX4e  1  3.650000e-01  1.910000e+00
TDA2  SX3e  1  3.650000e-01  1.750000e+00
TDA2  SX2e  1  3.660000e-01  1.600000e+00
TDA2  SX1e  1  3.780000e-01  1.450000e+00
TDA2  SN4q  1  3.650000e-01  2.830000e+00
TDA2  SN3q  1  3.650000e-01  2.570000e+00
TDA2  SN2q  1  3.650000e-01  2.570000e+00
TDA2  SN1q  1  3.650000e-01  2.340000e+00
TDA2  SC6q  1  3.650000e-01  2.340000e+00
TDA2  SC5q  1  3.650000e-01  2.110000e+00
TDA2  SC4q  1  3.650000e-01  1.910000e+00
TDA2  SC3q  1  3.650000e-01  1.910000e+00
TDA2  SC2q  1  3.650000e-01  1.750000e+00
TDA2  SC1q  1  3.660000e-01  1.600000e+00
TDA2  SX4q  1  3.650000e-01  2.570000e+00
TDA2  SX3q  1  3.650000e-01  2.340000e+00
TDA2  SX2q  1  3.650000e-01  2.110000e+00
TDA2  SX1q  1  3.650000e-01  1.910000e+00
TDA2  SN4h  1  3.650000e-01  2.340000e+00
TDA2  SN3h  1  3.650000e-01  2.110000e+00
TDA2  SN2h  1  3.650000e-01  2.110000e+00
TDA2  SN1h  1  3.650000e-01  1.910000e+00
TDA2  SC6h  1  3.650000e-01  1.910000e+00
TDA2  SC5h  1  3.650000e-01  1.750000e+00
TDA2  SC4h  1  3.660000e-01  1.600000e+00
TDA2  SC3h  1  3.660000e-01  1.600000e+00
TDA2  SC2h  1  3.780000e-01  1.450000e+00
TDA2  SC1h  1  3.940000e-01  1.290000e+00
TDA2  SX4h  1  3.650000e-01  2.110000e+00
TDA2  SX3h  1  3.650000e-01  1.910000e+00
TDA2  SX2h  1  3.650000e-01  1.750000e+00
TDA2  SX1h  1  3.660000e-01  1.600000e+00
TDA2  SN4r  1  3.650000e-01  2.340000e+00
TDA2  SN3r  1  3.650000e-01  2.110000e+00
TDA2  SN2r  1  3.650000e-01  2.110000e+00
TDA2  SN1r  1  3.650000e-01  1.910000e+00
TDA2  SC6r  1  3.650000e-01  1.910000e+00
TDA2  SC5r  1  3.650000e-01  1.750000e+00
TDA2  SC4r  1  3.660000e-01  1.600000e+00
TDA2  SC3r  1  3.660000e-01  1.600000e+00
TDA2  SC2r  1  3.780000e-01  1.450000e+00
TDA2  SC1r  1  3.940000e-01  1.290000e+00
TDA2  SX4r  1  3.650000e-01  2.110000e+00
TDA2  SX3r  1  3.650000e-01  1.910000e+00
TDA2  SX2r  1  3.650000e-01  1.750000e+00
TDA2  SX1r  1  3.660000e-01  1.600000e+00
P6a  TDA2  1  3.950000e-01  2.310000e+00
P5a  TDA2  1  3.950000e-01  2.310000e+00
P4a  TDA2  1  3.950000e-01  2.310000e+00
P3a  TDA2  1  3.950000e-01  2.310000e+00
P2a  TDA2  1  3.950000e-01  2.500000e+00
P1a  TDA2  1  3.950000e-01  2.500000e+00
N6a  TDA2  1  3.950000e-01  2.700000e+00
N5a  TDA2  1  3.950000e-01  2.500000e+00
P6d  TDA2  1  3.950000e-01  2.700000e+00
P5d  TDA2  1  3.950000e-01  2.700000e+00
P4d  TDA2  1  3.950000e-01  2.700000e+00
P3d  TDA2  1  3.950000e-01  2.700000e+00
P2d  TDA2  1  3.950000e-01  2.940000e+00
P1d  TDA2  1  3.950000e-01  2.940000e+00
N6d  TDA2  1  3.950000e-01  3.190000e+00
N5d  TDA2  1  3.950000e-01  2.940000e+00
P6q  TDA2  1  3.950000e-01  2.940000e+00
P5q  TDA2  1  3.950000e-01  2.940000e+00
P4q  TDA2  1  3.950000e-01  2.940000e+00
P3q  TDA2  1  3.950000e-01  2.940000e+00
P2q  TDA2  1  3.950000e-01  3.190000e+00
P1q  TDA2  1  3.950000e-01  3.190000e+00
N6q  TDA2  1  3.950000e-01  3.430000e+00
N5q  TDA2  1  3.950000e-01  3.190000e+00
P6dq  TDA2  1  3.950000e-01  3.190000e+00
P5dq  TDA2  1  3.950000e-01  3.190000e+00
P4dq  TDA2  1  3.950000e-01  3.190000e+00
P3dq  TDA2  1  3.950000e-01  3.190000e+00
P2dq  TDA2  1  3.950000e-01  3.430000e+00
P1dq  TDA2  1  3.950000e-01  3.430000e+00
N6dq  TDA2  1  3.950000e-01  3.670000e+00
N5dq  TDA2  1  3.950000e-01  3.430000e+00
P6aq  TDA2  1  3.950000e-01  2.700000e+00
P5aq  TDA2  1  3.950000e-01  2.700000e+00
P4aq  TDA2  1  3.950000e-01  2.700000e+00
P3aq  TDA2  1  3.950000e-01  2.700000e+00
P2aq  TDA2  1  3.950000e-01  2.940000e+00
P1aq  TDA2  1  3.950000e-01  2.940000e+00
N6aq  TDA2  1  3.950000e-01  3.190000e+00
P6h  TDA2  1  3.950000e-01  2.500000e+00
P5h  TDA2  1  3.950000e-01  2.500000e+00
P4h  TDA2  1  3.950000e-01  2.500000e+00
P3h  TDA2  1  3.950000e-01  2.500000e+00
P2h  TDA2  1  3.950000e-01  2.700000e+00
P1h  TDA2  1  3.950000e-01  2.700000e+00
N6h  TDA2  1  3.950000e-01  2.940000e+00
N5h  TDA2  1  3.950000e-01  2.700000e+00
P6dh  TDA2  1  3.950000e-01  2.700000e+00
P5dh  TDA2  1  3.950000e-01  2.700000e+00
P4dh  TDA2  1  3.950000e-01  2.700000e+00
P3dh  TDA2  1  3.950000e-01  2.700000e+00
P2dh  TDA2  1  3.950000e-01  2.940000e+00
P1dh  TDA2  1  3.950000e-01  2.940000e+00
N6dh  TDA2  1  3.950000e-01  3.190000e+00
N5dh  TDA2  1  3.950000e-01  2.940000e+00
P6ah  TDA2  1  3.950000e-01  2.310000e+00
P5ah  TDA2  1  3.950000e-01  2.310000e+00
P4ah  TDA2  1  3.950000e-01  2.310000e+00
P3ah  TDA2  1  3.950000e-01  2.310000e+00
P2ah  TDA2  1  3.950000e-01  2.500000e+00
P1ah  TDA2  1  3.950000e-01  2.500000e+00
N6ah  TDA2  1  3.950000e-01  2.700000e+00
P6r  TDA2  1  3.950000e-01  2.500000e+00
P5r  TDA2  1  3.950000e-01  2.500000e+00
P4r  TDA2  1  3.950000e-01  2.500000e+00
P3r  TDA2  1  3.950000e-01  2.500000e+00
P2r  TDA2  1  3.950000e-01  2.700000e+00
P1r  TDA2  1  3.950000e-01  2.700000e+00
N6r  TDA2  1  3.950000e-01  2.940000e+00
N5r  TDA2  1  3.950000e-01  2.700000e+00
P6dr  TDA2  1  3.950000e-01  2.700000e+00
P5dr  TDA2  1  3.950000e-01  2.700000e+00
P4dr  TDA2  1  3.950000e-01  2.700000e+00
P3dr  TDA2  1  3.950000e-01  2.700000e+00
P2dr  TDA2  1  3.950000e-01  2.940000e+00
P1dr  TDA2  1  3.950000e-01  2.940000e+00
N6dr  TDA2  1  3.950000e-01  3.190000e+00
N5dr  TDA2  1  3.950000e-01  2.940000e+00
P6ar  TDA2  1  3.950000e-01  2.310000e+00
P5ar  TDA2  1  3.950000e-01  2.310000e+00
P4ar  TDA2  1  3.950000e-01  2.310000e+00
P3ar  TDA2  1  3.950000e-01  2.310000e+00
P2ar  TDA2  1  3.950000e-01  2.500000e+00
P1ar  TDA2  1  3.950000e-01  2.500000e+00
N6ar  TDA2  1  3.950000e-01  2.700000e+00
TDA2  N4a  1  3.950000e-01  2.500000e+00
TDA2  N3a  1  3.950000e-01  2.310000e+00
TDA2  N2a  1  3.950000e-01  2.310000e+00
TDA2  N1a  1  3.950000e-01  2.110000e+00
TDA2  N4d  1  3.950000e-01  2.940000e+00
TDA2  N3d  1  3.950000e-01  2.700000e+00
TDA2  N2d  1  3.950000e-01  2.700000e+00
TDA2  N1d  1  3.950000e-01  2.500000e+00
TDA2  C6v  1  3.950000e-01  2.500000e+00
TDA2  C5v  1  3.950000e-01  2.310000e+00
TDA2  C4v  1  3.950000e-01  2.110000e+00
TDA2  C3v  1  3.950000e-01  2.110000e+00
TDA2  C2v  1  3.950000e-01  1.850000e+00
TDA2  C1v  1  3.950000e-01  1.670000e+00
TDA2  X4v  1  3.950000e-01  2.700000e+00
TDA2  X3v  1  3.950000e-01  2.500000e+00
TDA2  X2v  1  3.950000e-01  2.310000e+00
TDA2  X1v  1  3.950000e-01  2.110000e+00
TDA2  C6e  1  3.950000e-01  2.110000e+00
TDA2  C5e  1  3.950000e-01  1.850000e+00
TDA2  C4e  1  3.950000e-01  1.670000e+00
TDA2  C3e  1  3.950000e-01  1.670000e+00
TDA2  C2e  1  3.980000e-01  1.450000e+00
TDA2  C1e  1  3.990000e-01  1.180000e+00
TDA2  X4e  1  3.950000e-01  2.310000e+00
TDA2  X3e  1  3.950000e-01  2.110000e+00
TDA2  X2e  1  3.950000e-01  1.850000e+00
TDA2  X1e  1  3.950000e-01  1.670000e+00
TDA2  N4q  1  3.950000e-01  3.190000e+00
TDA2  N3q  1  3.950000e-01  2.940000e+00
TDA2  N2q  1  3.950000e-01  2.940000e+00
TDA2  N1q  1  3.950000e-01  2.700000e+00
TDA2  C6q  1  3.950000e-01  2.700000e+00
TDA2  C5q  1  3.950000e-01  2.500000e+00
TDA2  C4q  1  3.950000e-01  2.310000e+00
TDA2  C3q  1  3.950000e-01  2.310000e+00
TDA2  C2q  1  3.950000e-01  2.110000e+00
TDA2  C1q  1  3.950000e-01  1.850000e+00
TDA2  X4q  1  3.950000e-01  2.940000e+00
TDA2  X3q  1  3.950000e-01  2.700000e+00
TDA2  X2q  1  3.950000e-01  2.500000e+00
TDA2  X1q  1  3.950000e-01  2.310000e+00
TDA2  N4dq  1  3.950000e-01  3.430000e+00
TDA2  N3dq  1  3.950000e-01  3.190000e+00
TDA2  N2dq  1  3.950000e-01  3.190000e+00
TDA2  N1dq  1  3.950000e-01  2.940000e+00
TDA2  N5aq  1  3.950000e-01  2.940000e+00
TDA2  X1eq  1  3.950000e-01  2.110000e+00
TDA2  X2eq  1  3.950000e-01  2.310000e+00
TDA2  X3eq  1  3.950000e-01  2.500000e+00
TDA2  X4eq  1  3.950000e-01  2.700000e+00
TDA2  C1eq  1  3.950000e-01  1.670000e+00
TDA2  C2eq  1  3.950000e-01  1.850000e+00
TDA2  C3eq  1  3.950000e-01  2.110000e+00
TDA2  C4eq  1  3.950000e-01  2.110000e+00
TDA2  C5eq  1  3.950000e-01  2.310000e+00
TDA2  C6eq  1  3.950000e-01  2.500000e+00
TDA2  X1vq  1  3.950000e-01  2.500000e+00
TDA2  X2vq  1  3.950000e-01  2.700000e+00
TDA2  X3vq  1  3.950000e-01  2.940000e+00
TDA2  X4vq  1  3.950000e-01  3.190000e+00
TDA2  C1vq  1  3.950000e-01  2.110000e+00
TDA2  C2vq  1  3.950000e-01  2.310000e+00
TDA2  C3vq  1  3.950000e-01  2.500000e+00
TDA2  C4vq  1  3.950000e-01  2.500000e+00
TDA2  C5vq  1  3.950000e-01  2.700000e+00
TDA2  C6vq  1  3.950000e-01  2.940000e+00
TDA2  N1aq  1  3.950000e-01  2.500000e+00
TDA2  N2aq  1  3.950000e-01  2.700000e+00
TDA2  N3aq  1  3.950000e-01  2.700000e+00
TDA2  N4aq  1  3.950000e-01  2.940000e+00
TDA2  N4h  1  3.950000e-01  2.700000e+00
TDA2  N3h  1  3.950000e-01  2.500000e+00
TDA2  N2h  1  3.950000e-01  2.500000e+00
TDA2  N1h  1  3.950000e-01  2.310000e+00
TDA2  C6h  1  3.950000e-01  2.310000e+00
TDA2  C5h  1  3.950000e-01  2.110000e+00
TDA2  C4h  1  3.950000e-01  1.850000e+00
TDA2  C3h  1  3.950000e-01  1.850000e+00
TDA2  C2h  1  3.950000e-01  1.670000e+00
TDA2  C1h  1  3.980000e-01  1.450000e+00
TDA2  X4h  1  3.950000e-01  2.500000e+00
TDA2  X3h  1  3.950000e-01  2.310000e+00
TDA2  X2h  1  3.950000e-01  2.110000e+00
TDA2  X1h  1  3.950000e-01  1.850000e+00
TDA2  N4dh  1  3.950000e-01  2.940000e+00
TDA2  N3dh  1  3.950000e-01  2.700000e+00
TDA2  N2dh  1  3.950000e-01  2.700000e+00
TDA2  N1dh  1  3.950000e-01  2.500000e+00
TDA2  N5ah  1  3.950000e-01  2.500000e+00
TDA2  X1eh  1  3.950000e-01  1.670000e+00
TDA2  X2eh  1  3.950000e-01  1.850000e+00
TDA2  X3eh  1  3.950000e-01  2.110000e+00
TDA2  X4eh  1  3.950000e-01  2.310000e+00
TDA2  C1eh  1  3.990000e-01  1.180000e+00
TDA2  C2eh  1  3.980000e-01  1.450000e+00
TDA2  C3eh  1  3.950000e-01  1.670000e+00
TDA2  C4eh  1  3.950000e-01  1.670000e+00
TDA2  C5eh  1  3.950000e-01  1.850000e+00
TDA2  C6eh  1  3.950000e-01  2.110000e+00
TDA2  X1vh  1  3.950000e-01  2.110000e+00
TDA2  X2vh  1  3.950000e-01  2.310000e+00
TDA2  X3vh  1  3.950000e-01  2.500000e+00
TDA2  X4vh  1  3.950000e-01  2.700000e+00
TDA2  C1vh  1  3.950000e-01  1.670000e+00
TDA2  C2vh  1  3.950000e-01  1.850000e+00
TDA2  C3vh  1  3.950000e-01  2.110000e+00
TDA2  C4vh  1  3.950000e-01  2.110000e+00
TDA2  C5vh  1  3.950000e-01  2.310000e+00
TDA2  C6vh  1  3.950000e-01  2.500000e+00
TDA2  N1ah  1  3.950000e-01  2.110000e+00
TDA2  N2ah  1  3.950000e-01  2.310000e+00
TDA2  N3ah  1  3.950000e-01  2.310000e+00
TDA2  N4ah  1  3.950000e-01  2.500000e+00
TDA2  N4r  1  3.950000e-01  2.700000e+00
TDA2  N3r  1  3.950000e-01  2.500000e+00
TDA2  N2r  1  3.950000e-01  2.500000e+00
TDA2  N1r  1  3.950000e-01  2.310000e+00
TDA2  C6r  1  3.950000e-01  2.310000e+00
TDA2  C5r  1  3.950000e-01  2.110000e+00
TDA2  C4r  1  3.950000e-01  1.850000e+00
TDA2  C3r  1  3.950000e-01  1.850000e+00
TDA2  C2r  1  3.950000e-01  1.670000e+00
TDA2  C1r  1  3.980000e-01  1.450000e+00
TDA2  X4r  1  3.950000e-01  2.500000e+00
TDA2  X3r  1  3.950000e-01  2.310000e+00
TDA2  X2r  1  3.950000e-01  2.110000e+00
TDA2  X1r  1  3.950000e-01  1.850000e+00
TDA2  N4dr  1  3.950000e-01  2.940000e+00
TDA2  N3dr  1  3.950000e-01  2.700000e+00
TDA2  N2dr  1  3.950000e-01  2.700000e+00
TDA2  N1dr  1  3.950000e-01  2.500000e+00
TDA2  N5ar  1  3.950000e-01  2.500000e+00
TDA2  X1er  1  3.950000e-01  1.670000e+00
TDA2  X2er  1  3.950000e-01  1.850000e+00
TDA2  X3er  1  3.950000e-01  2.110000e+00
TDA2  X4er  1  3.950000e-01  2.310000e+00
TDA2  C1er  1  3.990000e-01  1.180000e+00
TDA2  C2er  1  3.980000e-01  1.450000e+00
TDA2  C3er  1  3.950000e-01  1.670000e+00
TDA2  C4er  1  3.950000e-01  1.670000e+00
TDA2  C5er  1  3.950000e-01  1.850000e+00
TDA2  C6er  1  3.950000e-01  2.110000e+00
TDA2  X1vr  1  3.950000e-01  2.110000e+00
TDA2  X2vr  1  3.950000e-01  2.310000e+00
TDA2  X3vr  1  3.950000e-01  2.500000e+00
TDA2  X4vr  1  3.950000e-01  2.700000e+00
TDA2  C1vr  1  3.950000e-01  1.670000e+00
TDA2  C2vr  1  3.950000e-01  1.850000e+00
TDA2  C3vr  1  3.950000e-01  2.110000e+00
TDA2  C4vr  1  3.950000e-01  2.110000e+00
TDA2  C5vr  1  3.950000e-01  2.310000e+00
TDA2  C6vr  1  3.950000e-01  2.500000e+00
TDA2  N1ar  1  3.950000e-01  2.110000e+00
TDA2  N2ar  1  3.950000e-01  2.310000e+00
TDA2  N3ar  1  3.950000e-01  2.310000e+00
TDA2  N4ar  1  3.950000e-01  2.500000e+00
TP6d  TDA2  1  3.400000e-01  2.500000e+00
TP5d  TDA2  1  3.400000e-01  2.500000e+00
TP4d  TDA2  1  3.400000e-01  2.500000e+00
TP3d  TDA2  1  3.400000e-01  2.500000e+00
TP2d  TDA2  1  3.400000e-01  2.740000e+00
TP1d  TDA2  1  3.400000e-01  2.740000e+00
TN6d  TDA2  1  3.400000e-01  2.990000e+00
TN5d  TDA2  1  3.400000e-01  2.740000e+00
TP6dq  TDA2  1  3.400000e-01  2.990000e+00
TP5dq  TDA2  1  3.400000e-01  2.990000e+00
TP4dq  TDA2  1  3.400000e-01  2.990000e+00
TP3dq  TDA2  1  3.400000e-01  2.990000e+00
TP2dq  TDA2  1  3.400000e-01  3.220000e+00
TP1dq  TDA2  1  3.400000e-01  3.220000e+00
TN6dq  TDA2  1  3.400000e-01  3.470000e+00
TN5dq  TDA2  1  3.400000e-01  3.220000e+00
TP6dh  TDA2  1  3.400000e-01  2.500000e+00
TP5dh  TDA2  1  3.400000e-01  2.500000e+00
TP4dh  TDA2  1  3.400000e-01  2.500000e+00
TP3dh  TDA2  1  3.400000e-01  2.500000e+00
TP2dh  TDA2  1  3.400000e-01  2.740000e+00
TP1dh  TDA2  1  3.400000e-01  2.740000e+00
TN6dh  TDA2  1  3.400000e-01  2.990000e+00
TN5dh  TDA2  1  3.400000e-01  2.740000e+00
TP6dr  TDA2  1  3.400000e-01  2.500000e+00
TP5dr  TDA2  1  3.400000e-01  2.500000e+00
TP4dr  TDA2  1  3.400000e-01  2.500000e+00
TP3dr  TDA2  1  3.400000e-01  2.500000e+00
TP2dr  TDA2  1  3.400000e-01  2.740000e+00
TP1dr  TDA2  1  3.400000e-01  2.740000e+00
TN6dr  TDA2  1  3.400000e-01  2.990000e+00
TN5dr  TDA2  1  3.400000e-01  2.740000e+00
TDA2  TN4d  1  3.400000e-01  2.740000e+00
TDA2  TN3d  1  3.400000e-01  2.500000e+00
TDA2  TN2d  1  3.400000e-01  2.500000e+00
TDA2  TN1d  1  3.400000e-01  2.280000e+00
TDA2  TN4dq  1  3.400000e-01  3.220000e+00
TDA2  TN3dq  1  3.400000e-01  2.990000e+00
TDA2  TN2dq  1  3.400000e-01  2.990000e+00
TDA2  TN1dq  1  3.400000e-01  2.740000e+00
TDA2  TN4dh  1  3.400000e-01  2.740000e+00
TDA2  TN3dh  1  3.400000e-01  2.500000e+00
TDA2  TN2dh  1  3.400000e-01  2.500000e+00
TDA2  TN1dh  1  3.400000e-01  2.280000e+00
TDA2  TN4dr  1  3.400000e-01  2.740000e+00
TDA2  TN3dr  1  3.400000e-01  2.500000e+00
TDA2  TN2dr  1  3.400000e-01  2.500000e+00
TDA2  TN1dr  1  3.400000e-01  2.280000e+00
TDA2  TC6v  1  3.400000e-01  1.770000e+00
TDA2  TC5v  1  3.400000e-01  1.510000e+00
TDA2  TC4v  1  3.400000e-01  1.230000e+00
TDA2  TC3v  1  3.400000e-01  1.230000e+00
TDA2  TC2v  1  3.520000e-01  1.050000e+00
TDA2  TC1v  1  3.660000e-01  9.350000e-01
TDA2  TX4v  1  3.400000e-01  2.020000e+00
TDA2  TX3v  1  3.400000e-01  1.770000e+00
TDA2  TX2v  1  3.400000e-01  1.510000e+00
TDA2  TX1v  1  3.400000e-01  1.230000e+00
TDA2  TX1vq  1  3.400000e-01  1.770000e+00
TDA2  TX2vq  1  3.400000e-01  2.020000e+00
TDA2  TX3vq  1  3.400000e-01  2.280000e+00
TDA2  TX4vq  1  3.400000e-01  2.500000e+00
TDA2  TC1vq  1  3.400000e-01  1.230000e+00
TDA2  TC2vq  1  3.400000e-01  1.510000e+00
TDA2  TC3vq  1  3.400000e-01  1.770000e+00
TDA2  TC4vq  1  3.400000e-01  1.770000e+00
TDA2  TC5vq  1  3.400000e-01  2.020000e+00
TDA2  TC6vq  1  3.400000e-01  2.280000e+00
TDA2  TX1vh  1  3.400000e-01  1.230000e+00
TDA2  TX2vh  1  3.400000e-01  1.510000e+00
TDA2  TX3vh  1  3.400000e-01  1.770000e+00
TDA2  TX4vh  1  3.400000e-01  2.020000e+00
TDA2  TC1vh  1  3.660000e-01  9.350000e-01
TDA2  TC2vh  1  3.520000e-01  1.050000e+00
TDA2  TC3vh  1  3.400000e-01  1.230000e+00
TDA2  TC4vh  1  3.400000e-01  1.230000e+00
TDA2  TC5vh  1  3.400000e-01  1.510000e+00
TDA2  TC6vh  1  3.400000e-01  1.770000e+00
TDA2  TX1vr  1  3.400000e-01  1.230000e+00
TDA2  TX2vr  1  3.400000e-01  1.510000e+00
TDA2  TX3vr  1  3.400000e-01  1.770000e+00
TDA2  TX4vr  1  3.400000e-01  2.020000e+00
TDA2  TC1vr  1  3.660000e-01  9.350000e-01
TDA2  TC2vr  1  3.520000e-01  1.050000e+00
TDA2  TC3vr  1  3.400000e-01  1.230000e+00
TDA2  TC4vr  1  3.400000e-01  1.230000e+00
TDA2  TC5vr  1  3.400000e-01  1.510000e+00
TDA2  TC6vr  1  3.400000e-01  1.770000e+00
TDA2  TC6e  1  3.400000e-01  1.230000e+00
TDA2  TC5e  1  3.520000e-01  1.050000e+00
TDA2  TC4e  1  3.660000e-01  9.350000e-01
TDA2  TC3e  1  3.660000e-01  9.350000e-01
TDA2  TC2e  1  3.850000e-01  8.550000e-01
TDA2  TC1e  1  4.110000e-01  8.010000e-01
TDA2  TX4e  1  3.400000e-01  1.510000e+00
TDA2  TX3e  1  3.400000e-01  1.230000e+00
TDA2  TX2e  1  3.520000e-01  1.050000e+00
TDA2  TX1e  1  3.660000e-01  9.350000e-01
TDA2  TX1eq  1  3.400000e-01  1.230000e+00
TDA2  TX2eq  1  3.400000e-01  1.510000e+00
TDA2  TX3eq  1  3.400000e-01  1.770000e+00
TDA2  TX4eq  1  3.400000e-01  2.020000e+00
TDA2  TC1eq  1  3.660000e-01  9.350000e-01
TDA2  TC2eq  1  3.520000e-01  1.050000e+00
TDA2  TC3eq  1  3.400000e-01  1.230000e+00
TDA2  TC4eq  1  3.400000e-01  1.230000e+00
TDA2  TC5eq  1  3.400000e-01  1.510000e+00
TDA2  TC6eq  1  3.400000e-01  1.770000e+00
TDA2  TX1eh  1  3.660000e-01  9.350000e-01
TDA2  TX2eh  1  3.520000e-01  1.050000e+00
TDA2  TX3eh  1  3.400000e-01  1.230000e+00
TDA2  TX4eh  1  3.400000e-01  1.510000e+00
TDA2  TC1eh  1  4.110000e-01  8.010000e-01
TDA2  TC2eh  1  3.850000e-01  8.550000e-01
TDA2  TC3eh  1  3.660000e-01  9.350000e-01
TDA2  TC4eh  1  3.660000e-01  9.350000e-01
TDA2  TC5eh  1  3.520000e-01  1.050000e+00
TDA2  TC6eh  1  3.400000e-01  1.230000e+00
TDA2  TX1er  1  3.660000e-01  9.350000e-01
TDA2  TX2er  1  3.520000e-01  1.050000e+00
TDA2  TX3er  1  3.400000e-01  1.230000e+00
TDA2  TX4er  1  3.400000e-01  1.510000e+00
TDA2  TC1er  1  4.110000e-01  8.010000e-01
TDA2  TC2er  1  3.850000e-01  8.550000e-01
TDA2  TC3er  1  3.660000e-01  9.350000e-01
TDA2  TC4er  1  3.660000e-01  9.350000e-01
TDA2  TC5er  1  3.520000e-01  1.050000e+00
TDA2  TC6er  1  3.400000e-01  1.230000e+00
TDA2  TN5aq  1  3.400000e-01  2.280000e+00
TDA2  TN1aq  1  3.400000e-01  1.770000e+00
TDA2  TN2aq  1  3.400000e-01  2.020000e+00
TDA2  TN3aq  1  3.400000e-01  2.020000e+00
TDA2  TN4aq  1  3.400000e-01  2.280000e+00
TDA2  TN5ah  1  3.400000e-01  1.770000e+00
TDA2  TN1ah  1  3.400000e-01  1.230000e+00
TDA2  TN2ah  1  3.400000e-01  1.510000e+00
TDA2  TN3ah  1  3.400000e-01  1.510000e+00
TDA2  TN4ah  1  3.400000e-01  1.770000e+00
TDA2  TN5ar  1  3.400000e-01  1.770000e+00
TDA2  TN1ar  1  3.400000e-01  1.230000e+00
TDA2  TN2ar  1  3.400000e-01  1.510000e+00
TDA2  TN3ar  1  3.400000e-01  1.510000e+00
TDA2  TN4ar  1  3.400000e-01  1.770000e+00
TP6a  TDA2  1  3.400000e-01  1.510000e+00
TP5a  TDA2  1  3.400000e-01  1.510000e+00
TP4a  TDA2  1  3.400000e-01  1.510000e+00
TP3a  TDA2  1  3.400000e-01  1.510000e+00
TP2a  TDA2  1  3.400000e-01  1.770000e+00
TP1a  TDA2  1  3.400000e-01  1.770000e+00
TN6a  TDA2  1  3.400000e-01  2.020000e+00
TDA2  TN5a  1  3.400000e-01  1.770000e+00
TDA2  TN4a  1  3.400000e-01  1.770000e+00
TDA2  TN3a  1  3.400000e-01  1.510000e+00
TDA2  TN2a  1  3.400000e-01  1.510000e+00
TDA2  TN1a  1  3.400000e-01  1.230000e+00
TP6q  TDA2  1  3.400000e-01  2.280000e+00
TP5q  TDA2  1  3.400000e-01  2.280000e+00
TP4q  TDA2  1  3.400000e-01  2.280000e+00
TP3q  TDA2  1  3.400000e-01  2.280000e+00
TP2q  TDA2  1  3.400000e-01  2.500000e+00
TP1q  TDA2  1  3.400000e-01  2.500000e+00
TN6q  TDA2  1  3.400000e-01  2.740000e+00
TN5q  TDA2  1  3.400000e-01  2.500000e+00
TDA2  TN4q  1  3.400000e-01  2.500000e+00
TDA2  TN3q  1  3.400000e-01  2.280000e+00
TDA2  TN2q  1  3.400000e-01  2.280000e+00
TDA2  TN1q  1  3.400000e-01  2.020000e+00
TDA2  TC6q  1  3.400000e-01  2.020000e+00
TDA2  TC5q  1  3.400000e-01  1.770000e+00
TDA2  TC4q  1  3.400000e-01  1.510000e+00
TDA2  TC3q  1  3.400000e-01  1.510000e+00
TDA2  TC2q  1  3.400000e-01  1.230000e+00
TDA2  TC1q  1  3.520000e-01  1.050000e+00
TDA2  TX4q  1  3.400000e-01  2.280000e+00
TDA2  TX3q  1  3.400000e-01  2.020000e+00
TDA2  TX2q  1  3.400000e-01  1.770000e+00
TDA2  TX1q  1  3.400000e-01  1.510000e+00
TP6h  TDA2  1  3.400000e-01  1.770000e+00
TP5h  TDA2  1  3.400000e-01  1.770000e+00
TP4h  TDA2  1  3.400000e-01  1.770000e+00
TP3h  TDA2  1  3.400000e-01  1.770000e+00
TP2h  TDA2  1  3.400000e-01  2.020000e+00
TP1h  TDA2  1  3.400000e-01  2.020000e+00
TN6h  TDA2  1  3.400000e-01  2.280000e+00
TN5h  TDA2  1  3.400000e-01  2.020000e+00
TDA2  TN4h  1  3.400000e-01  2.020000e+00
TDA2  TN3h  1  3.400000e-01  1.770000e+00
TDA2  TN2h  1  3.400000e-01  1.770000e+00
TDA2  TN1h  1  3.400000e-01  1.510000e+00
TDA2  TC6h  1  3.400000e-01  1.510000e+00
TDA2  TC5h  1  3.400000e-01  1.230000e+00
TDA2  TC4h  1  3.520000e-01  1.050000e+00
TDA2  TC3h  1  3.520000e-01  1.050000e+00
TDA2  TC2h  1  3.660000e-01  9.350000e-01
TDA2  TC1h  1  3.850000e-01  8.550000e-01
TDA2  TX4h  1  3.400000e-01  1.770000e+00
TDA2  TX3h  1  3.400000e-01  1.510000e+00
TDA2  TX2h  1  3.400000e-01  1.230000e+00
TDA2  TX1h  1  3.520000e-01  1.050000e+00
TP6r  TDA2  1  3.400000e-01  1.770000e+00
TP5r  TDA2  1  3.400000e-01  1.770000e+00
TP4r  TDA2  1  3.400000e-01  1.770000e+00
TP3r  TDA2  1  3.400000e-01  1.770000e+00
TP2r  TDA2  1  3.400000e-01  2.020000e+00
TP1r  TDA2  1  3.400000e-01  2.020000e+00
TN6r  TDA2  1  3.400000e-01  2.280000e+00
TN5r  TDA2  1  3.400000e-01  2.020000e+00
TDA2  TN4r  1  3.400000e-01  2.020000e+00
TDA2  TN3r  1  3.400000e-01  1.770000e+00
TDA2  TN2r  1  3.400000e-01  1.770000e+00
TDA2  TN1r  1  3.400000e-01  1.510000e+00
TDA2  TC6r  1  3.400000e-01  1.510000e+00
TDA2  TC5r  1  3.400000e-01  1.230000e+00
TDA2  TC4r  1  3.520000e-01  1.050000e+00
TDA2  TC3r  1  3.520000e-01  1.050000e+00
TDA2  TC2r  1  3.660000e-01  9.350000e-01
TDA2  TC1r  1  3.850000e-01  8.550000e-01
TDA2  TX4r  1  3.400000e-01  1.770000e+00
TDA2  TX3r  1  3.400000e-01  1.510000e+00
TDA2  TX2r  1  3.400000e-01  1.230000e+00
TDA2  TX1r  1  3.520000e-01  1.050000e+00
TP6aq  TDA2  1  3.400000e-01  2.020000e+00
TP5aq  TDA2  1  3.400000e-01  2.020000e+00
TP4aq  TDA2  1  3.400000e-01  2.020000e+00
TP3aq  TDA2  1  3.400000e-01  2.020000e+00
TP2aq  TDA2  1  3.400000e-01  2.280000e+00
TP1aq  TDA2  1  3.400000e-01  2.280000e+00
TN6aq  TDA2  1  3.400000e-01  2.500000e+00
TP6ah  TDA2  1  3.400000e-01  1.510000e+00
TP5ah  TDA2  1  3.400000e-01  1.510000e+00
TP4ah  TDA2  1  3.400000e-01  1.510000e+00
TP3ah  TDA2  1  3.400000e-01  1.510000e+00
TP2ah  TDA2  1  3.400000e-01  1.770000e+00
TP1ah  TDA2  1  3.400000e-01  1.770000e+00
TN6ah  TDA2  1  3.400000e-01  2.020000e+00
TP6ar  TDA2  1  3.400000e-01  1.510000e+00
TP5ar  TDA2  1  3.400000e-01  1.510000e+00
TP4ar  TDA2  1  3.400000e-01  1.510000e+00
TP3ar  TDA2  1  3.400000e-01  1.510000e+00
TP2ar  TDA2  1  3.400000e-01  1.770000e+00
TP1ar  TDA2  1  3.400000e-01  1.770000e+00
TN6ar  TDA2  1  3.400000e-01  2.020000e+00
W  TDA2  1  3.850000e-01  2.780000e+00
SW  TDA2  1  3.750000e-01  2.150000e+00
TW  TDA2  1  3.450000e-01  2.140000e+00
TDA2  D  1  3.950000e-01  4.244000e+00
TDA2  SD  1  3.650000e-01  9.813000e+00
TDA2  TD  1  3.400000e-01  1.160200e+01
TDA2  Q5  1  3.950000e-01  3.774000e+00
TDA2  SQ5  1  3.650000e-01  4.989000e+00
TDA2  TQ5  1  3.400000e-01  6.895000e+00
TDA2  Q5p  1  3.950000e-01  4.254000e+00
TDA2  SQ5p  1  3.650000e-01  5.529000e+00
TDA2  TQ5p  1  3.400000e-01  7.625000e+00
TDA2  Q5n  1  3.950000e-01  3.534000e+00
TDA2  SQ5n  1  3.650000e-01  4.719000e+00
TDA2  TQ5n  1  3.400000e-01  6.655000e+00
TDA2  Q4  1  3.950000e-01  3.782000e+00
TDA2  SQ4  1  3.650000e-01  5.033000e+00
TDA2  TQ4  1  3.400000e-01  6.993000e+00
TDA2  Q4p  1  3.950000e-01  4.262000e+00
TDA2  SQ4p  1  3.650000e-01  5.573000e+00
TDA2  TQ4p  1  3.400000e-01  7.723000e+00
TDA2  Q4n  1  3.950000e-01  3.542000e+00
TDA2  SQ4n  1  3.650000e-01  4.763000e+00
TDA2  TQ4n  1  3.400000e-01  6.753000e+00
TDA2  Q3  1  3.950000e-01  3.565000e+00
TDA2  SQ3  1  3.650000e-01  4.888000e+00
TDA2  TQ3  1  3.400000e-01  7.027000e+00
TDA2  Q3p  1  3.950000e-01  4.045000e+00
TDA2  SQ3p  1  3.650000e-01  5.428000e+00
TDA2  TQ3p  1  3.400000e-01  7.747000e+00
TDA2  Q3n  1  3.950000e-01  3.315000e+00
TDA2  SQ3n  1  3.650000e-01  4.628000e+00
TDA2  TQ3n  1  3.400000e-01  6.807000e+00
TDA2  Q2  1  3.950000e-01  3.580000e+00
TDA2  SQ2  1  3.650000e-01  4.972000e+00
TDA2  TQ2  1  3.400000e-01  7.212000e+00
TDA2  Q2p  1  3.950000e-01  4.060000e+00
TDA2  SQ2p  1  3.650000e-01  5.512000e+00
TDA2  TQ2p  1  3.400000e-01  7.932000e+00
TDA2  Q2n  1  3.950000e-01  3.330000e+00
TDA2  SQ2n  1  3.650000e-01  4.712000e+00
TDA2  TQ2n  1  3.400000e-01  6.992000e+00
TDA2  Q1  1  3.950000e-01  3.591000e+00
TDA2  SQ1  1  3.650000e-01  5.030000e+00
TDA2  TQ1  1  3.400000e-01  7.341000e+00
TDA2  Q1p  1  3.950000e-01  4.071000e+00
TDA2  SQ1p  1  3.650000e-01  5.570000e+00
TDA2  TQ1p  1  3.400000e-01  8.061000e+00
TDA2  Q1n  1  3.950000e-01  3.341000e+00
TDA2  SQ1n  1  3.650000e-01  4.770000e+00
TDA2  TQ1n  1  3.400000e-01  7.121000e+00
P6  TDA3  1  3.950000e-01  3.190000e+00
SP6  TDA3  1  3.650000e-01  2.830000e+00
TP6  TDA3  1  3.400000e-01  2.500000e+00
P5  TDA3  1  3.950000e-01  2.940000e+00
SP5  TDA3  1  3.650000e-01  2.570000e+00
TP5  TDA3  1  3.400000e-01  2.280000e+00
P4  TDA3  1  3.950000e-01  2.940000e+00
SP4  TDA3  1  3.650000e-01  2.570000e+00
TP4  TDA3  1  3.400000e-01  2.280000e+00
P3  TDA3  1  3.950000e-01  2.940000e+00
SP3  TDA3  1  3.650000e-01  2.570000e+00
TP3  TDA3  1  3.400000e-01  2.280000e+00
P2  TDA3  1  3.950000e-01  2.940000e+00
SP2  TDA3  1  3.650000e-01  2.570000e+00
TP2  TDA3  1  3.400000e-01  2.280000e+00
P1  TDA3  1  3.950000e-01  2.940000e+00
SP1  TDA3  1  3.650000e-01  2.570000e+00
TP1  TDA3  1  3.400000e-01  2.280000e+00
TDA3  N6  1  3.950000e-01  2.940000e+00
TDA3  SN6  1  3.650000e-01  2.570000e+00
TDA3  TN6  1  3.400000e-01  2.280000e+00
TDA3  N5  1  3.950000e-01  2.700000e+00
TDA3  SN5  1  3.650000e-01  2.340000e+00
TDA3  TN5  1  3.400000e-01  2.020000e+00
TDA3  N4  1  3.950000e-01  2.700000e+00
TDA3  SN4  1  3.650000e-01  2.340000e+00
TDA3  TN4  1  3.400000e-01  2.020000e+00
TDA3  N3  1  3.950000e-01  2.310000e+00
TDA3  SN3  1  3.650000e-01  1.910000e+00
TDA3  TN3  1  3.400000e-01  1.510000e+00
TDA3  N2  1  3.950000e-01  2.310000e+00
TDA3  SN2  1  3.650000e-01  1.910000e+00
TDA3  TN2  1  3.400000e-01  1.510000e+00
TDA3  N1  1  3.950000e-01  2.310000e+00
TDA3  SN1  1  3.650000e-01  1.910000e+00
TDA3  TN1  1  3.400000e-01  1.510000e+00
TDA3  C6  1  3.950000e-01  2.110000e+00
TDA3  SC6  1  3.650000e-01  1.750000e+00
TDA3  TC6  1  3.400000e-01  1.230000e+00
TDA3  C5  1  3.950000e-01  1.850000e+00
TDA3  SC5  1  3.660000e-01  1.600000e+00
TDA3  TC5  1  3.520000e-01  1.050000e+00
TDA3  C4  1  3.950000e-01  1.670000e+00
TDA3  SC4  1  3.780000e-01  1.450000e+00
TDA3  TC4  1  3.660000e-01  9.350000e-01
TDA3  C3  1  3.980000e-01  1.450000e+00
TDA3  SC3  1  3.940000e-01  1.290000e+00
TDA3  TC3  1  3.850000e-01  8.550000e-01
TDA3  C2  1  3.980000e-01  1.450000e+00
TDA3  SC2  1  3.940000e-01  1.290000e+00
TDA3  TC2  1  3.850000e-01  8.550000e-01
TDA3  C1  1  3.990000e-01  1.180000e+00
TDA3  SC1  1  4.040000e-01  1.130000e+00
TDA3  TC1  1  4.110000e-01  8.010000e-01
TDA3  X4  1  3.950000e-01  2.110000e+00
TDA3  SX4  1  3.650000e-01  1.750000e+00
TDA3  TX4  1  3.400000e-01  1.230000e+00
TDA3  X3  1  3.950000e-01  2.110000e+00
TDA3  SX3  1  3.650000e-01  1.750000e+00
TDA3  TX3  1  3.400000e-01  1.230000e+00
TDA3  X2  1  3.950000e-01  1.850000e+00
TDA3  SX2  1  3.660000e-01  1.600000e+00
TDA3  TX2  1  3.520000e-01  1.050000e+00
TDA3  X1  1  3.950000e-01  1.670000e+00
TDA3  SX1  1  3.780000e-01  1.450000e+00
TDA3  TX1  1  3.660000e-01  9.350000e-01
SP6d  TDA3  1  3.650000e-01  2.570000e+00
SP5d  TDA3  1  3.650000e-01  2.340000e+00
SP4d  TDA3  1  3.650000e-01  2.340000e+00
SP3d  TDA3  1  3.650000e-01  2.340000e+00
SP2d  TDA3  1  3.650000e-01  2.340000e+00
SP1d  TDA3  1  3.650000e-01  2.340000e+00
SP6a  TDA3  1  3.650000e-01  3.100000e+00
SP5a  TDA3  1  3.650000e-01  2.830000e+00
SP4a  TDA3  1  3.650000e-01  2.830000e+00
SP3a  TDA3  1  3.650000e-01  2.830000e+00
SP2a  TDA3  1  3.650000e-01  2.830000e+00
SP6q  TDA3  1  3.650000e-01  3.370000e+00
SP5q  TDA3  1  3.650000e-01  3.100000e+00
SP4q  TDA3  1  3.650000e-01  3.100000e+00
SP3q  TDA3  1  3.650000e-01  3.100000e+00
SP2q  TDA3  1  3.650000e-01  3.100000e+00
SP1q  TDA3  1  3.650000e-01  3.100000e+00
SP6h  TDA3  1  3.650000e-01  2.830000e+00
SP5h  TDA3  1  3.650000e-01  2.570000e+00
SP4h  TDA3  1  3.650000e-01  2.570000e+00
SP3h  TDA3  1  3.650000e-01  2.570000e+00
SP2h  TDA3  1  3.650000e-01  2.570000e+00
SP1h  TDA3  1  3.650000e-01  2.570000e+00
SP6r  TDA3  1  3.650000e-01  2.830000e+00
SP5r  TDA3  1  3.650000e-01  2.570000e+00
SP4r  TDA3  1  3.650000e-01  2.570000e+00
SP3r  TDA3  1  3.650000e-01  2.570000e+00
SP2r  TDA3  1  3.650000e-01  2.570000e+00
SP1r  TDA3  1  3.650000e-01  2.570000e+00
SP6dq  TDA3  1  3.650000e-01  3.100000e+00
SP5dq  TDA3  1  3.650000e-01  2.830000e+00
SP4dq  TDA3  1  3.650000e-01  2.830000e+00
SP3dq  TDA3  1  3.650000e-01  2.830000e+00
SP2dq  TDA3  1  3.650000e-01  2.830000e+00
SP2aq  TDA3  1  3.650000e-01  3.370000e+00
SP3aq  TDA3  1  3.650000e-01  3.370000e+00
SP4aq  TDA3  1  3.650000e-01  3.370000e+00
SP5aq  TDA3  1  3.650000e-01  3.370000e+00
SP6aq  TDA3  1  3.650000e-01  3.640000e+00
SP6dh  TDA3  1  3.650000e-01  2.570000e+00
SP5dh  TDA3  1  3.650000e-01  2.340000e+00
SP4dh  TDA3  1  3.650000e-01  2.340000e+00
SP3dh  TDA3  1  3.650000e-01  2.340000e+00
SP2dh  TDA3  1  3.650000e-01  2.340000e+00
SP2ah  TDA3  1  3.650000e-01  2.830000e+00
SP3ah  TDA3  1  3.650000e-01  2.830000e+00
SP4ah  TDA3  1  3.650000e-01  2.830000e+00
SP5ah  TDA3  1  3.650000e-01  2.830000e+00
SP6ah  TDA3  1  3.650000e-01  3.100000e+00
SP6dr  TDA3  1  3.650000e-01  2.570000e+00
SP5dr  TDA3  1  3.650000e-01  2.340000e+00
SP4dr  TDA3  1  3.650000e-01  2.340000e+00
SP3dr  TDA3  1  3.650000e-01  2.340000e+00
SP2dr  TDA3  1  3.650000e-01  2.340000e+00
SP2ar  TDA3  1  3.650000e-01  2.830000e+00
SP3ar  TDA3  1  3.650000e-01  2.830000e+00
SP4ar  TDA3  1  3.650000e-01  2.830000e+00
SP5ar  TDA3  1  3.650000e-01  2.830000e+00
SP6ar  TDA3  1  3.650000e-01  3.100000e+00
TDA3  SP1dq  1  3.650000e-01  2.830000e+00
TDA3  SX1eq  1  3.650000e-01  1.910000e+00
TDA3  SX2eq  1  3.650000e-01  2.110000e+00
TDA3  SX3eq  1  3.650000e-01  2.340000e+00
TDA3  SX4eq  1  3.650000e-01  2.340000e+00
TDA3  SC1eq  1  3.660000e-01  1.600000e+00
TDA3  SC2eq  1  3.650000e-01  1.750000e+00
TDA3  SC3eq  1  3.650000e-01  1.750000e+00
TDA3  SC4eq  1  3.650000e-01  1.910000e+00
TDA3  SC5eq  1  3.650000e-01  2.110000e+00
TDA3  SC6eq  1  3.650000e-01  2.340000e+00
TDA3  SX1vq  1  3.660000e-01  1.600000e+00
TDA3  SX2vq  1  3.650000e-01  1.750000e+00
TDA3  SX3vq  1  3.650000e-01  1.910000e+00
TDA3  SX4vq  1  3.650000e-01  1.910000e+00
TDA3  SC1vq  1  3.940000e-01  1.290000e+00
TDA3  SC2vq  1  3.780000e-01  1.450000e+00
TDA3  SC3vq  1  3.780000e-01  1.450000e+00
TDA3  SC4vq  1  3.660000e-01  1.600000e+00
TDA3  SC5vq  1  3.650000e-01  1.750000e+00
TDA3  SC6vq  1  3.650000e-01  1.910000e+00
TDA3  SN1aq  1  3.650000e-01  2.570000e+00
TDA3  SN2aq  1  3.650000e-01  2.570000e+00
TDA3  SN3aq  1  3.650000e-01  2.570000e+00
TDA3  SN4aq  1  3.650000e-01  3.100000e+00
TDA3  SN5aq  1  3.650000e-01  3.100000e+00
TDA3  SN6aq  1  3.650000e-01  3.370000e+00
TDA3  SP1aq  1  3.650000e-01  3.370000e+00
TDA3  SN1dq  1  3.650000e-01  2.110000e+00
TDA3  SN2dq  1  3.650000e-01  2.110000e+00
TDA3  SN3dq  1  3.650000e-01  2.110000e+00
TDA3  SN4dq  1  3.650000e-01  2.570000e+00
TDA3  SN5dq  1  3.650000e-01  2.570000e+00
TDA3  SN6dq  1  3.650000e-01  2.830000e+00
TDA3  SP1dh  1  3.650000e-01  2.340000e+00
TDA3  SX1eh  1  3.660000e-01  1.600000e+00
TDA3  SX2eh  1  3.650000e-01  1.750000e+00
TDA3  SX3eh  1  3.650000e-01  1.910000e+00
TDA3  SX4eh  1  3.650000e-01  1.910000e+00
TDA3  SC1eh  1  3.940000e-01  1.290000e+00
TDA3  SC2eh  1  3.780000e-01  1.450000e+00
TDA3  SC3eh  1  3.780000e-01  1.450000e+00
TDA3  SC4eh  1  3.660000e-01  1.600000e+00
TDA3  SC5eh  1  3.650000e-01  1.750000e+00
TDA3  SC6eh  1  3.650000e-01  1.910000e+00
TDA3  SX1vh  1  3.940000e-01  1.290000e+00
TDA3  SX2vh  1  3.780000e-01  1.450000e+00
TDA3  SX3vh  1  3.660000e-01  1.600000e+00
TDA3  SX4vh  1  3.660000e-01  1.600000e+00
TDA3  SC1vh  1  4.090000e-01  1.080000e+00
TDA3  SC2vh  1  4.040000e-01  1.130000e+00
TDA3  SC3vh  1  4.040000e-01  1.130000e+00
TDA3  SC4vh  1  3.940000e-01  1.290000e+00
TDA3  SC5vh  1  3.780000e-01  1.450000e+00
TDA3  SC6vh  1  3.660000e-01  1.600000e+00
TDA3  SN1ah  1  3.650000e-01  2.110000e+00
TDA3  SN2ah  1  3.650000e-01  2.110000e+00
TDA3  SN3ah  1  3.650000e-01  2.110000e+00
TDA3  SN4ah  1  3.650000e-01  2.570000e+00
TDA3  SN5ah  1  3.650000e-01  2.570000e+00
TDA3  SN6ah  1  3.650000e-01  2.830000e+00
TDA3  SP1ah  1  3.650000e-01  2.830000e+00
TDA3  SN1dh  1  3.650000e-01  1.750000e+00
TDA3  SN2dh  1  3.650000e-01  1.750000e+00
TDA3  SN3dh  1  3.650000e-01  1.750000e+00
TDA3  SN4dh  1  3.650000e-01  2.110000e+00
TDA3  SN5dh  1  3.650000e-01  2.110000e+00
TDA3  SN6dh  1  3.650000e-01  2.340000e+00
TDA3  SP1dr  1  3.650000e-01  2.340000e+00
TDA3  SX1er  1  3.660000e-01  1.600000e+00
TDA3  SX2er  1  3.650000e-01  1.750000e+00
TDA3  SX3er  1  3.650000e-01  1.910000e+00
TDA3  SX4er  1  3.650000e-01  1.910000e+00
TDA3  SC1er  1  3.940000e-01  1.290000e+00
TDA3  SC2er  1  3.780000e-01  1.450000e+00
TDA3  SC3er  1  3.780000e-01  1.450000e+00
TDA3  SC4er  1  3.660000e-01  1.600000e+00
TDA3  SC5er  1  3.650000e-01  1.750000e+00
TDA3  SC6er  1  3.650000e-01  1.910000e+00
TDA3  SX1vr  1  3.940000e-01  1.290000e+00
TDA3  SX2vr  1  3.780000e-01  1.450000e+00
TDA3  SX3vr  1  3.660000e-01  1.600000e+00
TDA3  SX4vr  1  3.660000e-01  1.600000e+00
TDA3  SC1vr  1  4.090000e-01  1.080000e+00
TDA3  SC2vr  1  4.040000e-01  1.130000e+00
TDA3  SC3vr  1  4.040000e-01  1.130000e+00
TDA3  SC4vr  1  3.940000e-01  1.290000e+00
TDA3  SC5vr  1  3.780000e-01  1.450000e+00
TDA3  SC6vr  1  3.660000e-01  1.600000e+00
TDA3  SN1ar  1  3.650000e-01  2.110000e+00
TDA3  SN2ar  1  3.650000e-01  2.110000e+00
TDA3  SN3ar  1  3.650000e-01  2.110000e+00
TDA3  SN4ar  1  3.650000e-01  2.570000e+00
TDA3  SN5ar  1  3.650000e-01  2.570000e+00
TDA3  SN6ar  1  3.650000e-01  2.830000e+00
TDA3  SP1ar  1  3.650000e-01  2.830000e+00
TDA3  SN1dr  1  3.650000e-01  1.750000e+00
TDA3  SN2dr  1  3.650000e-01  1.750000e+00
TDA3  SN3dr  1  3.650000e-01  1.750000e+00
TDA3  SN4dr  1  3.650000e-01  2.110000e+00
TDA3  SN5dr  1  3.650000e-01  2.110000e+00
TDA3  SN6dr  1  3.650000e-01  2.340000e+00
TDA3  SN6d  1  3.650000e-01  2.340000e+00
TDA3  SN5d  1  3.650000e-01  2.110000e+00
TDA3  SN4d  1  3.650000e-01  2.110000e+00
TDA3  SN3d  1  3.650000e-01  1.750000e+00
TDA3  SN2d  1  3.650000e-01  1.750000e+00
TDA3  SN1d  1  3.650000e-01  1.750000e+00
TDA3  SP1a  1  3.650000e-01  2.830000e+00
TDA3  SN6a  1  3.650000e-01  2.830000e+00
TDA3  SN5a  1  3.650000e-01  2.570000e+00
TDA3  SN4a  1  3.650000e-01  2.570000e+00
TDA3  SN3a  1  3.650000e-01  2.110000e+00
TDA3  SN2a  1  3.650000e-01  2.110000e+00
TDA3  SN1a  1  3.650000e-01  2.110000e+00
TDA3  SC6e  1  3.650000e-01  1.910000e+00
TDA3  SC5e  1  3.650000e-01  1.750000e+00
TDA3  SC4e  1  3.660000e-01  1.600000e+00
TDA3  SC3e  1  3.780000e-01  1.450000e+00
TDA3  SC2e  1  3.780000e-01  1.450000e+00
TDA3  SC1e  1  3.940000e-01  1.290000e+00
TDA3  SX4e  1  3.650000e-01  1.910000e+00
TDA3  SX3e  1  3.650000e-01  1.910000e+00
TDA3  SX2e  1  3.650000e-01  1.750000e+00
TDA3  SX1e  1  3.660000e-01  1.600000e+00
TDA3  SC6v  1  3.660000e-01  1.600000e+00
TDA3  SC5v  1  3.780000e-01  1.450000e+00
TDA3  SC4v  1  3.940000e-01  1.290000e+00
TDA3  SC3v  1  4.040000e-01  1.130000e+00
TDA3  SC2v  1  4.040000e-01  1.130000e+00
TDA3  SC1v  1  4.090000e-01  1.080000e+00
TDA3  SX4v  1  3.660000e-01  1.600000e+00
TDA3  SX3v  1  3.660000e-01  1.600000e+00
TDA3  SX2v  1  3.780000e-01  1.450000e+00
TDA3  SX1v  1  3.940000e-01  1.290000e+00
TDA3  SN6q  1  3.650000e-01  3.100000e+00
TDA3  SN5q  1  3.650000e-01  2.830000e+00
TDA3  SN4q  1  3.650000e-01  2.830000e+00
TDA3  SN3q  1  3.650000e-01  2.340000e+00
TDA3  SN2q  1  3.650000e-01  2.340000e+00
TDA3  SN1q  1  3.650000e-01  2.340000e+00
TDA3  SC6q  1  3.650000e-01  2.110000e+00
TDA3  SC5q  1  3.650000e-01  1.910000e+00
TDA3  SC4q  1  3.650000e-01  1.750000e+00
TDA3  SC3q  1  3.660000e-01  1.600000e+00
TDA3  SC2q  1  3.660000e-01  1.600000e+00
TDA3  SC1q  1  3.780000e-01  1.450000e+00
TDA3  SX4q  1  3.650000e-01  2.110000e+00
TDA3  SX3q  1  3.650000e-01  2.110000e+00
TDA3  SX2q  1  3.650000e-01  1.910000e+00
TDA3  SX1q  1  3.650000e-01  1.750000e+00
TDA3  SN6h  1  3.650000e-01  2.570000e+00
TDA3  SN5h  1  3.650000e-01  2.340000e+00
TDA3  SN4h  1  3.650000e-01  2.340000e+00
TDA3  SN3h  1  3.650000e-01  1.910000e+00
TDA3  SN2h  1  3.650000e-01  1.910000e+00
TDA3  SN1h  1  3.650000e-01  1.910000e+00
TDA3  SC6h  1  3.650000e-01  1.750000e+00
TDA3  SC5h  1  3.660000e-01  1.600000e+00
TDA3  SC4h  1  3.780000e-01  1.450000e+00
TDA3  SC3h  1  3.940000e-01  1.290000e+00
TDA3  SC2h  1  3.940000e-01  1.290000e+00
TDA3  SC1h  1  4.040000e-01  1.130000e+00
TDA3  SX4h  1  3.650000e-01  1.750000e+00
TDA3  SX3h  1  3.650000e-01  1.750000e+00
TDA3  SX2h  1  3.660000e-01  1.600000e+00
TDA3  SX1h  1  3.780000e-01  1.450000e+00
TDA3  SN6r  1  3.650000e-01  2.570000e+00
TDA3  SN5r  1  3.650000e-01  2.340000e+00
TDA3  SN4r  1  3.650000e-01  2.340000e+00
TDA3  SN3r  1  3.650000e-01  1.910000e+00
TDA3  SN2r  1  3.650000e-01  1.910000e+00
TDA3  SN1r  1  3.650000e-01  1.910000e+00
TDA3  SC6r  1  3.650000e-01  1.750000e+00
TDA3  SC5r  1  3.660000e-01  1.600000e+00
TDA3  SC4r  1  3.780000e-01  1.450000e+00
TDA3  SC3r  1  3.940000e-01  1.290000e+00
TDA3  SC2r  1  3.940000e-01  1.290000e+00
TDA3  SC1r  1  4.040000e-01  1.130000e+00
TDA3  SX4r  1  3.650000e-01  1.750000e+00
TDA3  SX3r  1  3.650000e-01  1.750000e+00
TDA3  SX2r  1  3.660000e-01  1.600000e+00
TDA3  SX1r  1  3.780000e-01  1.450000e+00
P6d  TDA3  1  3.950000e-01  2.940000e+00
P5d  TDA3  1  3.950000e-01  2.700000e+00
P4d  TDA3  1  3.950000e-01  2.700000e+00
P3d  TDA3  1  3.950000e-01  2.700000e+00
P2d  TDA3  1  3.950000e-01  2.700000e+00
P1d  TDA3  1  3.950000e-01  2.700000e+00
P6a  TDA3  1  3.950000e-01  3.430000e+00
P5a  TDA3  1  3.950000e-01  3.190000e+00
P4a  TDA3  1  3.950000e-01  3.190000e+00
P3a  TDA3  1  3.950000e-01  3.190000e+00
P2a  TDA3  1  3.950000e-01  3.190000e+00
P6q  TDA3  1  3.950000e-01  3.670000e+00
P5q  TDA3  1  3.950000e-01  3.430000e+00
P4q  TDA3  1  3.950000e-01  3.430000e+00
P3q  TDA3  1  3.950000e-01  3.430000e+00
P2q  TDA3  1  3.950000e-01  3.430000e+00
P1q  TDA3  1  3.950000e-01  3.430000e+00
P6dq  TDA3  1  3.950000e-01  3.430000e+00
P5dq  TDA3  1  3.950000e-01  3.190000e+00
P4dq  TDA3  1  3.950000e-01  3.190000e+00
P3dq  TDA3  1  3.950000e-01  3.190000e+00
P2dq  TDA3  1  3.950000e-01  3.190000e+00
P2aq  TDA3  1  3.950000e-01  3.670000e+00
P3aq  TDA3  1  3.950000e-01  3.670000e+00
P4aq  TDA3  1  3.950000e-01  3.670000e+00
P5aq  TDA3  1  3.950000e-01  3.670000e+00
P6aq  TDA3  1  3.950000e-01  3.910000e+00
P6h  TDA3  1  3.950000e-01  3.190000e+00
P5h  TDA3  1  3.950000e-01  2.940000e+00
P4h  TDA3  1  3.950000e-01  2.940000e+00
P3h  TDA3  1  3.950000e-01  2.940000e+00
P2h  TDA3  1  3.950000e-01  2.940000e+00
P1h  TDA3  1  3.950000e-01  2.940000e+00
P6dh  TDA3  1  3.950000e-01  2.940000e+00
P5dh  TDA3  1  3.950000e-01  2.700000e+00
P4dh  TDA3  1  3.950000e-01  2.700000e+00
P3dh  TDA3  1  3.950000e-01  2.700000e+00
P2dh  TDA3  1  3.950000e-01  2.700000e+00
P2ah  TDA3  1  3.950000e-01  3.190000e+00
P3ah  TDA3  1  3.950000e-01  3.190000e+00
P4ah  TDA3  1  3.950000e-01  3.190000e+00
P5ah  TDA3  1  3.950000e-01  3.190000e+00
P6ah  TDA3  1  3.950000e-01  3.430000e+00
P6r  TDA3  1  3.950000e-01  3.190000e+00
P5r  TDA3  1  3.950000e-01  2.940000e+00
P4r  TDA3  1  3.950000e-01  2.940000e+00
P3r  TDA3  1  3.950000e-01  2.940000e+00
P2r  TDA3  1  3.950000e-01  2.940000e+00
P1r  TDA3  1  3.950000e-01  2.940000e+00
P6dr  TDA3  1  3.950000e-01  2.940000e+00
P5dr  TDA3  1  3.950000e-01  2.700000e+00
P4dr  TDA3  1  3.950000e-01  2.700000e+00
P3dr  TDA3  1  3.950000e-01  2.700000e+00
P2dr  TDA3  1  3.950000e-01  2.700000e+00
P2ar  TDA3  1  3.950000e-01  3.190000e+00
P3ar  TDA3  1  3.950000e-01  3.190000e+00
P4ar  TDA3  1  3.950000e-01  3.190000e+00
P5ar  TDA3  1  3.950000e-01  3.190000e+00
P6ar  TDA3  1  3.950000e-01  3.430000e+00
TDA3  N6d  1  3.950000e-01  2.700000e+00
TDA3  N5d  1  3.950000e-01  2.500000e+00
TDA3  N4d  1  3.950000e-01  2.500000e+00
TDA3  N3d  1  3.950000e-01  2.110000e+00
TDA3  N2d  1  3.950000e-01  2.110000e+00
TDA3  N1d  1  3.950000e-01  2.110000e+00
TDA3  P1a  1  3.950000e-01  3.190000e+00
TDA3  N6a  1  3.950000e-01  3.190000e+00
TDA3  N5a  1  3.950000e-01  2.940000e+00
TDA3  N4a  1  3.950000e-01  2.940000e+00
TDA3  N3a  1  3.950000e-01  2.500000e+00
TDA3  N2a  1  3.950000e-01  2.500000e+00
TDA3  N1a  1  3.950000e-01  2.500000e+00
TDA3  C6e  1  3.950000e-01  2.310000e+00
TDA3  C5e  1  3.950000e-01  2.110000e+00
TDA3  C4e  1  3.950000e-01  1.850000e+00
TDA3  C3e  1  3.950000e-01  1.670000e+00
TDA3  C2e  1  3.950000e-01  1.670000e+00
TDA3  C1e  1  3.980000e-01  1.450000e+00
TDA3  X4e  1  3.950000e-01  2.310000e+00
TDA3  X3e  1  3.950000e-01  2.310000e+00
TDA3  X2e  1  3.950000e-01  2.110000e+00
TDA3  X1e  1  3.950000e-01  1.850000e+00
TDA3  C6v  1  3.950000e-01  1.850000e+00
TDA3  C5v  1  3.950000e-01  1.670000e+00
TDA3  C4v  1  3.980000e-01  1.450000e+00
TDA3  C3v  1  3.990000e-01  1.180000e+00
TDA3  C2v  1  3.990000e-01  1.180000e+00
TDA3  C1v  1  4.010000e-01  9.830000e-01
TDA3  X4v  1  3.950000e-01  1.850000e+00
TDA3  X3v  1  3.950000e-01  1.850000e+00
TDA3  X2v  1  3.950000e-01  1.670000e+00
TDA3  X1v  1  3.980000e-01  1.450000e+00
TDA3  N6q  1  3.950000e-01  3.430000e+00
TDA3  N5q  1  3.950000e-01  3.190000e+00
TDA3  N4q  1  3.950000e-01  3.190000e+00
TDA3  N3q  1  3.950000e-01  2.700000e+00
TDA3  N2q  1  3.950000e-01  2.700000e+00
TDA3  N1q  1  3.950000e-01  2.700000e+00
TDA3  C6q  1  3.950000e-01  2.500000e+00
TDA3  C5q  1  3.950000e-01  2.310000e+00
TDA3  C4q  1  3.950000e-01  2.110000e+00
TDA3  C3q  1  3.950000e-01  1.850000e+00
TDA3  C2q  1  3.950000e-01  1.850000e+00
TDA3  C1q  1  3.950000e-01  1.670000e+00
TDA3  X4q  1  3.950000e-01  2.500000e+00
TDA3  X3q  1  3.950000e-01  2.500000e+00
TDA3  X2q  1  3.950000e-01  2.310000e+00
TDA3  X1q  1  3.950000e-01  2.110000e+00
TDA3  P1dq  1  3.950000e-01  3.190000e+00
TDA3  X1eq  1  3.950000e-01  2.310000e+00
TDA3  X2eq  1  3.950000e-01  2.500000e+00
TDA3  X3eq  1  3.950000e-01  2.700000e+00
TDA3  X4eq  1  3.950000e-01  2.700000e+00
TDA3  C1eq  1  3.950000e-01  1.850000e+00
TDA3  C2eq  1  3.950000e-01  2.110000e+00
TDA3  C3eq  1  3.950000e-01  2.110000e+00
TDA3  C4eq  1  3.950000e-01  2.310000e+00
TDA3  C5eq  1  3.950000e-01  2.500000e+00
TDA3  C6eq  1  3.950000e-01  2.700000e+00
TDA3  X1vq  1  3.950000e-01  1.850000e+00
TDA3  X2vq  1  3.950000e-01  2.110000e+00
TDA3  X3vq  1  3.950000e-01  2.310000e+00
TDA3  X4vq  1  3.950000e-01  2.310000e+00
TDA3  C1vq  1  3.980000e-01  1.450000e+00
TDA3  C2vq  1  3.950000e-01  1.670000e+00
TDA3  C3vq  1  3.950000e-01  1.670000e+00
TDA3  C4vq  1  3.950000e-01  1.850000e+00
TDA3  C5vq  1  3.950000e-01  2.110000e+00
TDA3  C6vq  1  3.950000e-01  2.310000e+00
TDA3  N1aq  1  3.950000e-01  2.940000e+00
TDA3  N2aq  1  3.950000e-01  2.940000e+00
TDA3  N3aq  1  3.950000e-01  2.940000e+00
TDA3  N4aq  1  3.950000e-01  3.430000e+00
TDA3  N5aq  1  3.950000e-01  3.430000e+00
TDA3  N6aq  1  3.950000e-01  3.670000e+00
TDA3  P1aq  1  3.950000e-01  3.670000e+00
TDA3  N1dq  1  3.950000e-01  2.500000e+00
TDA3  N2dq  1  3.950000e-01  2.500000e+00
TDA3  N3dq  1  3.950000e-01  2.500000e+00
TDA3  N4dq  1  3.950000e-01  2.940000e+00
TDA3  N5dq  1  3.950000e-01  2.940000e+00
TDA3  N6dq  1  3.950000e-01  3.190000e+00
TDA3  N6h  1  3.950000e-01  2.940000e+00
TDA3  N5h  1  3.950000e-01  2.700000e+00
TDA3  N4h  1  3.950000e-01  2.700000e+00
TDA3  N3h  1  3.950000e-01  2.310000e+00
TDA3  N2h  1  3.950000e-01  2.310000e+00
TDA3  N1h  1  3.950000e-01  2.310000e+00
TDA3  C6h  1  3.950000e-01  2.110000e+00
TDA3  C5h  1  3.950000e-01  1.850000e+00
TDA3  C4h  1  3.950000e-01  1.670000e+00
TDA3  C3h  1  3.980000e-01  1.450000e+00
TDA3  C2h  1  3.980000e-01  1.450000e+00
TDA3  C1h  1  3.990000e-01  1.180000e+00
TDA3  X4h  1  3.950000e-01  2.110000e+00
TDA3  X3h  1  3.950000e-01  2.110000e+00
TDA3  X2h  1  3.950000e-01  1.850000e+00
TDA3  X1h  1  3.950000e-01  1.670000e+00
TDA3  P1dh  1  3.950000e-01  2.700000e+00
TDA3  X1eh  1  3.950000e-01  1.850000e+00
TDA3  X2eh  1  3.950000e-01  2.110000e+00
TDA3  X3eh  1  3.950000e-01  2.310000e+00
TDA3  X4eh  1  3.950000e-01  2.310000e+00
TDA3  C1eh  1  3.980000e-01  1.450000e+00
TDA3  C2eh  1  3.950000e-01  1.670000e+00
TDA3  C3eh  1  3.950000e-01  1.670000e+00
TDA3  C4eh  1  3.950000e-01  1.850000e+00
TDA3  C5eh  1  3.950000e-01  2.110000e+00
TDA3  C6eh  1  3.950000e-01  2.310000e+00
TDA3  X1vh  1  3.980000e-01  1.450000e+00
TDA3  X2vh  1  3.950000e-01  1.670000e+00
TDA3  X3vh  1  3.950000e-01  1.850000e+00
TDA3  X4vh  1  3.950000e-01  1.850000e+00
TDA3  C1vh  1  4.010000e-01  9.830000e-01
TDA3  C2vh  1  3.990000e-01  1.180000e+00
TDA3  C3vh  1  3.990000e-01  1.180000e+00
TDA3  C4vh  1  3.980000e-01  1.450000e+00
TDA3  C5vh  1  3.950000e-01  1.670000e+00
TDA3  C6vh  1  3.950000e-01  1.850000e+00
TDA3  N1ah  1  3.950000e-01  2.500000e+00
TDA3  N2ah  1  3.950000e-01  2.500000e+00
TDA3  N3ah  1  3.950000e-01  2.500000e+00
TDA3  N4ah  1  3.950000e-01  2.940000e+00
TDA3  N5ah  1  3.950000e-01  2.940000e+00
TDA3  N6ah  1  3.950000e-01  3.190000e+00
TDA3  P1ah  1  3.950000e-01  3.190000e+00
TDA3  N1dh  1  3.950000e-01  2.110000e+00
TDA3  N2dh  1  3.950000e-01  2.110000e+00
TDA3  N3dh  1  3.950000e-01  2.110000e+00
TDA3  N4dh  1  3.950000e-01  2.500000e+00
TDA3  N5dh  1  3.950000e-01  2.500000e+00
TDA3  N6dh  1  3.950000e-01  2.700000e+00
TDA3  N6r  1  3.950000e-01  2.940000e+00
TDA3  N5r  1  3.950000e-01  2.700000e+00
TDA3  N4r  1  3.950000e-01  2.700000e+00
TDA3  N3r  1  3.950000e-01  2.310000e+00
TDA3  N2r  1  3.950000e-01  2.310000e+00
TDA3  N1r  1  3.950000e-01  2.310000e+00
TDA3  C6r  1  3.950000e-01  2.110000e+00
TDA3  C5r  1  3.950000e-01  1.850000e+00
TDA3  C4r  1  3.950000e-01  1.670000e+00
TDA3  C3r  1  3.980000e-01  1.450000e+00
TDA3  C2r  1  3.980000e-01  1.450000e+00
TDA3  C1r  1  3.990000e-01  1.180000e+00
TDA3  X4r  1  3.950000e-01  2.110000e+00
TDA3  X3r  1  3.950000e-01  2.110000e+00
TDA3  X2r  1  3.950000e-01  1.850000e+00
TDA3  X1r  1  3.950000e-01  1.670000e+00
TDA3  P1dr  1  3.950000e-01  2.700000e+00
TDA3  X1er  1  3.950000e-01  1.850000e+00
TDA3  X2er  1  3.950000e-01  2.110000e+00
TDA3  X3er  1  3.950000e-01  2.310000e+00
TDA3  X4er  1  3.950000e-01  2.310000e+00
TDA3  C1er  1  3.980000e-01  1.450000e+00
TDA3  C2er  1  3.950000e-01  1.670000e+00
TDA3  C3er  1  3.950000e-01  1.670000e+00
TDA3  C4er  1  3.950000e-01  1.850000e+00
TDA3  C5er  1  3.950000e-01  2.110000e+00
TDA3  C6er  1  3.950000e-01  2.310000e+00
TDA3  X1vr  1  3.980000e-01  1.450000e+00
TDA3  X2vr  1  3.950000e-01  1.670000e+00
TDA3  X3vr  1  3.950000e-01  1.850000e+00
TDA3  X4vr  1  3.950000e-01  1.850000e+00
TDA3  C1vr  1  4.010000e-01  9.830000e-01
TDA3  C2vr  1  3.990000e-01  1.180000e+00
TDA3  C3vr  1  3.990000e-01  1.180000e+00
TDA3  C4vr  1  3.980000e-01  1.450000e+00
TDA3  C5vr  1  3.950000e-01  1.670000e+00
TDA3  C6vr  1  3.950000e-01  1.850000e+00
TDA3  N1ar  1  3.950000e-01  2.500000e+00
TDA3  N2ar  1  3.950000e-01  2.500000e+00
TDA3  N3ar  1  3.950000e-01  2.500000e+00
TDA3  N4ar  1  3.950000e-01  2.940000e+00
TDA3  N5ar  1  3.950000e-01  2.940000e+00
TDA3  N6ar  1  3.950000e-01  3.190000e+00
TDA3  P1ar  1  3.950000e-01  3.190000e+00
TDA3  N1dr  1  3.950000e-01  2.110000e+00
TDA3  N2dr  1  3.950000e-01  2.110000e+00
TDA3  N3dr  1  3.950000e-01  2.110000e+00
TDA3  N4dr  1  3.950000e-01  2.500000e+00
TDA3  N5dr  1  3.950000e-01  2.500000e+00
TDA3  N6dr  1  3.950000e-01  2.700000e+00
TDA3  TP1a  1  3.400000e-01  2.990000e+00
TDA3  TN6a  1  3.400000e-01  2.990000e+00
TDA3  TN5a  1  3.400000e-01  2.740000e+00
TDA3  TN4a  1  3.400000e-01  2.740000e+00
TDA3  TN3a  1  3.400000e-01  2.280000e+00
TDA3  TN2a  1  3.400000e-01  2.280000e+00
TDA3  TN1a  1  3.400000e-01  2.280000e+00
TDA3  TN1aq  1  3.400000e-01  2.740000e+00
TDA3  TN2aq  1  3.400000e-01  2.740000e+00
TDA3  TN3aq  1  3.400000e-01  2.740000e+00
TDA3  TN4aq  1  3.400000e-01  3.220000e+00
TDA3  TN5aq  1  3.400000e-01  3.220000e+00
TDA3  TN6aq  1  3.400000e-01  3.470000e+00
TDA3  TP1aq  1  3.400000e-01  3.470000e+00
TDA3  TN1ah  1  3.400000e-01  2.280000e+00
TDA3  TN2ah  1  3.400000e-01  2.280000e+00
TDA3  TN3ah  1  3.400000e-01  2.280000e+00
TDA3  TN4ah  1  3.400000e-01  2.740000e+00
TDA3  TN5ah  1  3.400000e-01  2.740000e+00
TDA3  TN6ah  1  3.400000e-01  2.990000e+00
TDA3  TP1ah  1  3.400000e-01  2.990000e+00
TDA3  TN1ar  1  3.400000e-01  2.280000e+00
TDA3  TN2ar  1  3.400000e-01  2.280000e+00
TDA3  TN3ar  1  3.400000e-01  2.280000e+00
TDA3  TN4ar  1  3.400000e-01  2.740000e+00
TDA3  TN5ar  1  3.400000e-01  2.740000e+00
TDA3  TN6ar  1  3.400000e-01  2.990000e+00
TDA3  TP1ar  1  3.400000e-01  2.990000e+00
TP6a  TDA3  1  3.400000e-01  3.220000e+00
TP5a  TDA3  1  3.400000e-01  2.990000e+00
TP4a  TDA3  1  3.400000e-01  2.990000e+00
TP3a  TDA3  1  3.400000e-01  2.990000e+00
TP2a  TDA3  1  3.400000e-01  2.990000e+00
TP2aq  TDA3  1  3.400000e-01  3.470000e+00
TP3aq  TDA3  1  3.400000e-01  3.470000e+00
TP4aq  TDA3  1  3.400000e-01  3.470000e+00
TP5aq  TDA3  1  3.400000e-01  3.470000e+00
TP6aq  TDA3  1  3.400000e-01  3.750000e+00
TP2ah  TDA3  1  3.400000e-01  2.990000e+00
TP3ah  TDA3  1  3.400000e-01  2.990000e+00
TP4ah  TDA3  1  3.400000e-01  2.990000e+00
TP5ah  TDA3  1  3.400000e-01  2.990000e+00
TP6ah  TDA3  1  3.400000e-01  3.220000e+00
TP2ar  TDA3  1  3.400000e-01  2.990000e+00
TP3ar  TDA3  1  3.400000e-01  2.990000e+00
TP4ar  TDA3  1  3.400000e-01  2.990000e+00
TP5ar  TDA3  1  3.400000e-01  2.990000e+00
TP6ar  TDA3  1  3.400000e-01  3.220000e+00
TDA3  TC6e  1  3.400000e-01  1.510000e+00
TDA3  TC5e  1  3.400000e-01  1.230000e+00
TDA3  TC4e  1  3.520000e-01  1.050000e+00
TDA3  TC3e  1  3.660000e-01  9.350000e-01
TDA3  TC2e  1  3.660000e-01  9.350000e-01
TDA3  TC1e  1  3.850000e-01  8.550000e-01
TDA3  TX4e  1  3.400000e-01  1.510000e+00
TDA3  TX3e  1  3.400000e-01  1.510000e+00
TDA3  TX2e  1  3.400000e-01  1.230000e+00
TDA3  TX1e  1  3.520000e-01  1.050000e+00
TDA3  TX1eq  1  3.400000e-01  1.510000e+00
TDA3  TX2eq  1  3.400000e-01  1.770000e+00
TDA3  TX3eq  1  3.400000e-01  2.020000e+00
TDA3  TX4eq  1  3.400000e-01  2.020000e+00
TDA3  TC1eq  1  3.520000e-01  1.050000e+00
TDA3  TC2eq  1  3.400000e-01  1.230000e+00
TDA3  TC3eq  1  3.400000e-01  1.230000e+00
TDA3  TC4eq  1  3.400000e-01  1.510000e+00
TDA3  TC5eq  1  3.400000e-01  1.770000e+00
TDA3  TC6eq  1  3.400000e-01  2.020000e+00
TDA3  TX1eh  1  3.520000e-01  1.050000e+00
TDA3  TX2eh  1  3.400000e-01  1.230000e+00
TDA3  TX3eh  1  3.400000e-01  1.510000e+00
TDA3  TX4eh  1  3.400000e-01  1.510000e+00
TDA3  TC1eh  1  3.850000e-01  8.550000e-01
TDA3  TC2eh  1  3.660000e-01  9.350000e-01
TDA3  TC3eh  1  3.660000e-01  9.350000e-01
TDA3  TC4eh  1  3.520000e-01  1.050000e+00
TDA3  TC5eh  1  3.400000e-01  1.230000e+00
TDA3  TC6eh  1  3.400000e-01  1.510000e+00
TDA3  TX1er  1  3.520000e-01  1.050000e+00
TDA3  TX2er  1  3.400000e-01  1.230000e+00
TDA3  TX3er  1  3.400000e-01  1.510000e+00
TDA3  TX4er  1  3.400000e-01  1.510000e+00
TDA3  TC1er  1  3.850000e-01  8.550000e-01
TDA3  TC2er  1  3.660000e-01  9.350000e-01
TDA3  TC3er  1  3.660000e-01  9.350000e-01
TDA3  TC4er  1  3.520000e-01  1.050000e+00
TDA3  TC5er  1  3.400000e-01  1.230000e+00
TDA3  TC6er  1  3.400000e-01  1.510000e+00
TDA3  TC6v  1  3.520000e-01  1.050000e+00
TDA3  TC5v  1  3.660000e-01  9.350000e-01
TDA3  TC4v  1  3.850000e-01  8.550000e-01
TDA3  TC3v  1  4.110000e-01  8.010000e-01
TDA3  TC2v  1  4.110000e-01  8.010000e-01
TDA3  TC1v  1  4.240000e-01  7.760000e-01
TDA3  TX4v  1  3.520000e-01  1.050000e+00
TDA3  TX3v  1  3.520000e-01  1.050000e+00
TDA3  TX2v  1  3.660000e-01  9.350000e-01
TDA3  TX1v  1  3.850000e-01  8.550000e-01
TDA3  TX1vq  1  3.520000e-01  1.050000e+00
TDA3  TX2vq  1  3.400000e-01  1.230000e+00
TDA3  TX3vq  1  3.400000e-01  1.510000e+00
TDA3  TX4vq  1  3.400000e-01  1.510000e+00
TDA3  TC1vq  1  3.850000e-01  8.550000e-01
TDA3  TC2vq  1  3.660000e-01  9.350000e-01
TDA3  TC3vq  1  3.660000e-01  9.350000e-01
TDA3  TC4vq  1  3.520000e-01  1.050000e+00
TDA3  TC5vq  1  3.400000e-01  1.230000e+00
TDA3  TC6vq  1  3.400000e-01  1.510000e+00
TDA3  TX1vh  1  3.850000e-01  8.550000e-01
TDA3  TX2vh  1  3.660000e-01  9.350000e-01
TDA3  TX3vh  1  3.520000e-01  1.050000e+00
TDA3  TX4vh  1  3.520000e-01  1.050000e+00
TDA3  TC1vh  1  4.240000e-01  7.760000e-01
TDA3  TC2vh  1  4.110000e-01  8.010000e-01
TDA3  TC3vh  1  4.110000e-01  8.010000e-01
TDA3  TC4vh  1  3.850000e-01  8.550000e-01
TDA3  TC5vh  1  3.660000e-01  9.350000e-01
TDA3  TC6vh  1  3.520000e-01  1.050000e+00
TDA3  TX1vr  1  3.850000e-01  8.550000e-01
TDA3  TX2vr  1  3.660000e-01  9.350000e-01
TDA3  TX3vr  1  3.520000e-01  1.050000e+00
TDA3  TX4vr  1  3.520000e-01  1.050000e+00
TDA3  TC1vr  1  4.240000e-01  7.760000e-01
TDA3  TC2vr  1  4.110000e-01  8.010000e-01
TDA3  TC3vr  1  4.110000e-01  8.010000e-01
TDA3  TC4vr  1  3.850000e-01  8.550000e-01
TDA3  TC5vr  1  3.660000e-01  9.350000e-01
TDA3  TC6vr  1  3.520000e-01  1.050000e+00
TDA3  TP1dq  1  3.400000e-01  2.500000e+00
TDA3  TN1dq  1  3.400000e-01  1.770000e+00
TDA3  TN2dq  1  3.400000e-01  1.770000e+00
TDA3  TN3dq  1  3.400000e-01  1.770000e+00
TDA3  TN4dq  1  3.400000e-01  2.280000e+00
TDA3  TN5dq  1  3.400000e-01  2.280000e+00
TDA3  TN6dq  1  3.400000e-01  2.500000e+00
TDA3  TP1dh  1  3.400000e-01  2.020000e+00
TDA3  TN1dh  1  3.400000e-01  1.230000e+00
TDA3  TN2dh  1  3.400000e-01  1.230000e+00
TDA3  TN3dh  1  3.400000e-01  1.230000e+00
TDA3  TN4dh  1  3.400000e-01  1.770000e+00
TDA3  TN5dh  1  3.400000e-01  1.770000e+00
TDA3  TN6dh  1  3.400000e-01  2.020000e+00
TDA3  TP1dr  1  3.400000e-01  2.020000e+00
TDA3  TN1dr  1  3.400000e-01  1.230000e+00
TDA3  TN2dr  1  3.400000e-01  1.230000e+00
TDA3  TN3dr  1  3.400000e-01  1.230000e+00
TDA3  TN4dr  1  3.400000e-01  1.770000e+00
TDA3  TN5dr  1  3.400000e-01  1.770000e+00
TDA3  TN6dr  1  3.400000e-01  2.020000e+00
TP6d  TDA3  1  3.400000e-01  2.280000e+00
TP5d  TDA3  1  3.400000e-01  2.020000e+00
TP4d  TDA3  1  3.400000e-01  2.020000e+00
TP3d  TDA3  1  3.400000e-01  2.020000e+00
TP2d  TDA3  1  3.400000e-01  2.020000e+00
TDA3  TP1d  1  3.400000e-01  2.020000e+00
TDA3  TN6d  1  3.400000e-01  2.020000e+00
TDA3  TN5d  1  3.400000e-01  1.770000e+00
TDA3  TN4d  1  3.400000e-01  1.770000e+00
TDA3  TN3d  1  3.400000e-01  1.230000e+00
TDA3  TN2d  1  3.400000e-01  1.230000e+00
TDA3  TN1d  1  3.400000e-01  1.230000e+00
TP6q  TDA3  1  3.400000e-01  2.990000e+00
TP5q  TDA3  1  3.400000e-01  2.740000e+00
TP4q  TDA3  1  3.400000e-01  2.740000e+00
TP3q  TDA3  1  3.400000e-01  2.740000e+00
TP2q  TDA3  1  3.400000e-01  2.740000e+00
TP1q  TDA3  1  3.400000e-01  2.740000e+00
TDA3  TN6q  1  3.400000e-01  2.740000e+00
TDA3  TN5q  1  3.400000e-01  2.500000e+00
TDA3  TN4q  1  3.400000e-01  2.500000e+00
TDA3  TN3q  1  3.400000e-01  2.020000e+00
TDA3  TN2q  1  3.400000e-01  2.020000e+00
TDA3  TN1q  1  3.400000e-01  2.020000e+00
TDA3  TC6q  1  3.400000e-01  1.770000e+00
TDA3  TC5q  1  3.400000e-01  1.510000e+00
TDA3  TC4q  1  3.400000e-01  1.230000e+00
TDA3  TC3q  1  3.520000e-01  1.050000e+00
TDA3  TC2q  1  3.520000e-01  1.050000e+00
TDA3  TC1q  1  3.660000e-01  9.350000e-01
TDA3  TX4q  1  3.400000e-01  1.770000e+00
TDA3  TX3q  1  3.400000e-01  1.770000e+00
TDA3  TX2q  1  3.400000e-01  1.510000e+00
TDA3  TX1q  1  3.400000e-01  1.230000e+00
TP6h  TDA3  1  3.400000e-01  2.500000e+00
TP5h  TDA3  1  3.400000e-01  2.280000e+00
TP4h  TDA3  1  3.400000e-01  2.280000e+00
TP3h  TDA3  1  3.400000e-01  2.280000e+00
TP2h  TDA3  1  3.400000e-01  2.280000e+00
TP1h  TDA3  1  3.400000e-01  2.280000e+00
TDA3  TN6h  1  3.400000e-01  2.280000e+00
TDA3  TN5h  1  3.400000e-01  2.020000e+00
TDA3  TN4h  1  3.400000e-01  2.020000e+00
TDA3  TN3h  1  3.400000e-01  1.510000e+00
TDA3  TN2h  1  3.400000e-01  1.510000e+00
TDA3  TN1h  1  3.400000e-01  1.510000e+00
TDA3  TC6h  1  3.400000e-01  1.230000e+00
TDA3  TC5h  1  3.520000e-01  1.050000e+00
TDA3  TC4h  1  3.660000e-01  9.350000e-01
TDA3  TC3h  1  3.850000e-01  8.550000e-01
TDA3  TC2h  1  3.850000e-01  8.550000e-01
TDA3  TC1h  1  4.110000e-01  8.010000e-01
TDA3  TX4h  1  3.400000e-01  1.230000e+00
TDA3  TX3h  1  3.400000e-01  1.230000e+00
TDA3  TX2h  1  3.520000e-01  1.050000e+00
TDA3  TX1h  1  3.660000e-01  9.350000e-01
TP6r  TDA3  1  3.400000e-01  2.500000e+00
TP5r  TDA3  1  3.400000e-01  2.280000e+00
TP4r  TDA3  1  3.400000e-01  2.280000e+00
TP3r  TDA3  1  3.400000e-01  2.280000e+00
TP2r  TDA3  1  3.400000e-01  2.280000e+00
TP1r  TDA3  1  3.400000e-01  2.280000e+00
TDA3  TN6r  1  3.400000e-01  2.280000e+00
TDA3  TN5r  1  3.400000e-01  2.020000e+00
TDA3  TN4r  1  3.400000e-01  2.020000e+00
TDA3  TN3r  1  3.400000e-01  1.510000e+00
TDA3  TN2r  1  3.400000e-01  1.510000e+00
TDA3  TN1r  1  3.400000e-01  1.510000e+00
TDA3  TC6r  1  3.400000e-01  1.230000e+00
TDA3  TC5r  1  3.520000e-01  1.050000e+00
TDA3  TC4r  1  3.660000e-01  9.350000e-01
TDA3  TC3r  1  3.850000e-01  8.550000e-01
TDA3  TC2r  1  3.850000e-01  8.550000e-01
TDA3  TC1r  1  4.110000e-01  8.010000e-01
TDA3  TX4r  1  3.400000e-01  1.230000e+00
TDA3  TX3r  1  3.400000e-01  1.230000e+00
TDA3  TX2r  1  3.520000e-01  1.050000e+00
TDA3  TX1r  1  3.660000e-01  9.350000e-01
TP6dq  TDA3  1  3.400000e-01  2.740000e+00
TP5dq  TDA3  1  3.400000e-01  2.500000e+00
TP4dq  TDA3  1  3.400000e-01  2.500000e+00
TP3dq  TDA3  1  3.400000e-01  2.500000e+00
TP2dq  TDA3  1  3.400000e-01  2.500000e+00
TP6dh  TDA3  1  3.400000e-01  2.280000e+00
TP5dh  TDA3  1  3.400000e-01  2.020000e+00
TP4dh  TDA3  1  3.400000e-01  2.020000e+00
TP3dh  TDA3  1  3.400000e-01  2.020000e+00
TP2dh  TDA3  1  3.400000e-01  2.020000e+00
TP6dr  TDA3  1  3.400000e-01  2.280000e+00
TP5dr  TDA3  1  3.400000e-01  2.020000e+00
TP4dr  TDA3  1  3.400000e-01  2.020000e+00
TP3dr  TDA3  1  3.400000e-01  2.020000e+00
TP2dr  TDA3  1  3.400000e-01  2.020000e+00
W  TDA3  1  3.850000e-01  3.100000e+00
SW  TDA3  1  3.750000e-01  2.430000e+00
TW  TDA3  1  3.450000e-01  2.370000e+00
TDA3  D  1  3.950000e-01  4.517000e+00
TDA3  SD  1  3.650000e-01  1.044900e+01
TDA3  TD  1  3.400000e-01  1.232200e+01
TDA3  Q5  1  3.950000e-01  4.027000e+00
TDA3  SQ5  1  3.650000e-01  5.329000e+00
TDA3  TQ5  1  3.400000e-01  7.299000e+00
TDA3  Q5p  1  3.950000e-01  3.787000e+00
TDA3  SQ5p  1  3.650000e-01  5.059000e+00
TDA3  TQ5p  1  3.400000e-01  7.049000e+00
TDA3  Q5n  1  3.950000e-01  4.587000e+00
TDA3  SQ5n  1  3.650000e-01  5.889000e+00
TDA3  TQ5n  1  3.400000e-01  8.059000e+00
TDA3  Q4  1  3.950000e-01  3.793000e+00
TDA3  SQ4  1  3.650000e-01  5.092000e+00
TDA3  TQ4  1  3.400000e-01  7.122000e+00
TDA3  Q4p  1  3.950000e-01  3.553000e+00
TDA3  SQ4p  1  3.650000e-01  4.822000e+00
TDA3  TQ4p  1  3.400000e-01  6.882000e+00
TDA3  Q4n  1  3.950000e-01  4.273000e+00
TDA3  SQ4n  1  3.650000e-01  5.632000e+00
TDA3  TQ4n  1  3.400000e-01  7.852000e+00
TDA3  Q3  1  3.950000e-01  3.572000e+00
TDA3  SQ3  1  3.650000e-01  4.928000e+00
TDA3  TQ3  1  3.400000e-01  7.115000e+00
TDA3  Q3p  1  3.950000e-01  3.572000e+00
TDA3  SQ3p  1  3.650000e-01  4.928000e+00
TDA3  TQ3p  1  3.400000e-01  7.115000e+00
TDA3  Q3n  1  3.950000e-01  4.052000e+00
TDA3  SQ3n  1  3.650000e-01  5.468000e+00
TDA3  TQ3n  1  3.400000e-01  7.835000e+00
TDA3  Q2  1  3.950000e-01  3.585000e+00
TDA3  SQ2  1  3.650000e-01  4.996000e+00
TDA3  TQ2  1  3.400000e-01  7.264000e+00
TDA3  Q2p  1  3.950000e-01  3.585000e+00
TDA3  SQ2p  1  3.650000e-01  4.996000e+00
TDA3  TQ2p  1  3.400000e-01  7.264000e+00
TDA3  Q2n  1  3.950000e-01  4.065000e+00
TDA3  SQ2n  1  3.650000e-01  5.536000e+00
TDA3  TQ2n  1  3.400000e-01  7.984000e+00
TDA3  Q1  1  3.950000e-01  3.831000e+00
TDA3  SQ1  1  3.650000e-01  5.302000e+00
TDA3  TQ1  1  3.400000e-01  7.585000e+00
TDA3  Q1p  1  3.950000e-01  3.591000e+00
TDA3  SQ1p  1  3.650000e-01  5.032000e+00
TDA3  TQ1p  1  3.400000e-01  7.345000e+00
TDA3  Q1n  1  3.950000e-01  4.311000e+00
TDA3  SQ1n  1  3.650000e-01  5.842000e+00
TDA3  TQ1n  1  3.400000e-01  8.315000e+00
P6  TDA4  1  3.950000e-01  1.670000e+00
SP6  TDA4  1  3.780000e-01  1.450000e+00
TP6  TDA4  1  3.660000e-01  9.350000e-01
P5  TDA4  1  3.950000e-01  1.670000e+00
SP5  TDA4  1  3.780000e-01  1.450000e+00
TP5  TDA4  1  3.660000e-01  9.350000e-01
P4  TDA4  1  3.950000e-01  1.850000e+00
SP4  TDA4  1  3.660000e-01  1.600000e+00
TP4  TDA4  1  3.520000e-01  1.050000e+00
P3  TDA4  1  3.950000e-01  2.110000e+00
SP3  TDA4  1  3.650000e-01  1.750000e+00
TP3  TDA4  1  3.400000e-01  1.230000e+00
P2  TDA4  1  3.950000e-01  2.310000e+00
SP2  TDA4  1  3.650000e-01  1.910000e+00
TP2  TDA4  1  3.400000e-01  1.510000e+00
P1  TDA4  1  3.950000e-01  2.310000e+00
SP1  TDA4  1  3.650000e-01  1.910000e+00
TP1  TDA4  1  3.400000e-01  1.510000e+00
N6  TDA4  1  3.950000e-01  2.310000e+00
SN6  TDA4  1  3.650000e-01  1.910000e+00
TN6  TDA4  1  3.400000e-01  1.510000e+00
N5  TDA4  1  3.950000e-01  2.310000e+00
SN5  TDA4  1  3.650000e-01  1.910000e+00
TN5  TDA4  1  3.400000e-01  1.510000e+00
N4  TDA4  1  3.950000e-01  2.310000e+00
SN4  TDA4  1  3.650000e-01  1.910000e+00
TN4  TDA4  1  3.400000e-01  1.510000e+00
N3  TDA4  1  3.950000e-01  2.310000e+00
SN3  TDA4  1  3.650000e-01  1.910000e+00
TN3  TDA4  1  3.400000e-01  1.510000e+00
N2  TDA4  1  3.950000e-01  2.310000e+00
SN2  TDA4  1  3.650000e-01  1.910000e+00
TN2  TDA4  1  3.400000e-01  1.510000e+00
N1  TDA4  1  3.950000e-01  2.500000e+00
SN1  TDA4  1  3.650000e-01  2.110000e+00
TN1  TDA4  1  3.400000e-01  1.770000e+00
TDA4  C6  1  3.950000e-01  2.500000e+00
TDA4  SC6  1  3.650000e-01  2.110000e+00
TDA4  TC6  1  3.400000e-01  1.770000e+00
TDA4  C5  1  3.950000e-01  2.310000e+00
TDA4  SC5  1  3.650000e-01  1.910000e+00
TDA4  TC5  1  3.400000e-01  1.510000e+00
TDA4  C4  1  3.950000e-01  2.310000e+00
TDA4  SC4  1  3.650000e-01  1.910000e+00
TDA4  TC4  1  3.400000e-01  1.510000e+00
TDA4  C3  1  3.950000e-01  2.110000e+00
TDA4  SC3  1  3.650000e-01  1.750000e+00
TDA4  TC3  1  3.400000e-01  1.230000e+00
TDA4  C2  1  3.950000e-01  1.850000e+00
TDA4  SC2  1  3.660000e-01  1.600000e+00
TDA4  TC2  1  3.520000e-01  1.050000e+00
TDA4  C1  1  3.950000e-01  1.670000e+00
TDA4  SC1  1  3.780000e-01  1.450000e+00
TDA4  TC1  1  3.660000e-01  9.350000e-01
TDA4  X4  1  3.950000e-01  2.310000e+00
TDA4  SX4  1  3.650000e-01  1.910000e+00
TDA4  TX4  1  3.400000e-01  1.510000e+00
TDA4  X3  1  3.950000e-01  2.310000e+00
TDA4  SX3  1  3.650000e-01  1.910000e+00
TDA4  TX3  1  3.400000e-01  1.510000e+00
TDA4  X2  1  3.950000e-01  2.110000e+00
TDA4  SX2  1  3.650000e-01  1.750000e+00
TDA4  TX2  1  3.400000e-01  1.230000e+00
TDA4  X1  1  3.950000e-01  2.110000e+00
TDA4  SX1  1  3.650000e-01  1.750000e+00
TDA4  TX1  1  3.400000e-01  1.230000e+00
SP6a  TDA4  1  3.780000e-01  1.450000e+00
SP5a  TDA4  1  3.780000e-01  1.450000e+00
SP4a  TDA4  1  3.660000e-01  1.600000e+00
SP3a  TDA4  1  3.650000e-01  1.750000e+00
SP2a  TDA4  1  3.650000e-01  1.750000e+00
SP1a  TDA4  1  3.650000e-01  1.750000e+00
SN6a  TDA4  1  3.650000e-01  1.750000e+00
SN5a  TDA4  1  3.650000e-01  1.750000e+00
SN4a  TDA4  1  3.650000e-01  1.750000e+00
SN3a  TDA4  1  3.650000e-01  1.750000e+00
SN2a  TDA4  1  3.650000e-01  1.750000e+00
SN1a  TDA4  1  3.650000e-01  1.910000e+00
SP6d  TDA4  1  3.780000e-01  1.450000e+00
SP5d  TDA4  1  3.780000e-01  1.450000e+00
SP4d  TDA4  1  3.660000e-01  1.600000e+00
SP3d  TDA4  1  3.650000e-01  1.750000e+00
SP2d  TDA4  1  3.650000e-01  2.110000e+00
SP1d  TDA4  1  3.650000e-01  2.110000e+00
SN6d  TDA4  1  3.650000e-01  2.110000e+00
SN5d  TDA4  1  3.650000e-01  2.110000e+00
SN4d  TDA4  1  3.650000e-01  2.110000e+00
SN3d  TDA4  1  3.650000e-01  2.110000e+00
SN2d  TDA4  1  3.650000e-01  2.110000e+00
SN1d  TDA4  1  3.650000e-01  2.340000e+00
SP6q  TDA4  1  3.650000e-01  1.750000e+00
SP5q  TDA4  1  3.650000e-01  1.750000e+00
SP4q  TDA4  1  3.650000e-01  1.910000e+00
SP3q  TDA4  1  3.650000e-01  2.110000e+00
SP2q  TDA4  1  3.650000e-01  2.340000e+00
SP1q  TDA4  1  3.650000e-01  2.340000e+00
SN6q  TDA4  1  3.650000e-01  2.340000e+00
SN5q  TDA4  1  3.650000e-01  2.340000e+00
SN4q  TDA4  1  3.650000e-01  2.340000e+00
SN3q  TDA4  1  3.650000e-01  2.340000e+00
SN2q  TDA4  1  3.650000e-01  2.340000e+00
SN1q  TDA4  1  3.650000e-01  2.570000e+00
SP6h  TDA4  1  3.780000e-01  1.450000e+00
SP5h  TDA4  1  3.780000e-01  1.450000e+00
SP4h  TDA4  1  3.660000e-01  1.600000e+00
SP3h  TDA4  1  3.650000e-01  1.750000e+00
SP2h  TDA4  1  3.650000e-01  1.910000e+00
SP1h  TDA4  1  3.650000e-01  1.910000e+00
SN6h  TDA4  1  3.650000e-01  1.910000e+00
SN5h  TDA4  1  3.650000e-01  1.910000e+00
SN4h  TDA4  1  3.650000e-01  1.910000e+00
SN3h  TDA4  1  3.650000e-01  1.910000e+00
SN2h  TDA4  1  3.650000e-01  1.910000e+00
SN1h  TDA4  1  3.650000e-01  2.110000e+00
SP6r  TDA4  1  3.780000e-01  1.450000e+00
SP5r  TDA4  1  3.780000e-01  1.450000e+00
SP4r  TDA4  1  3.660000e-01  1.600000e+00
SP3r  TDA4  1  3.650000e-01  1.750000e+00
SP2r  TDA4  1  3.650000e-01  1.910000e+00
SP1r  TDA4  1  3.650000e-01  1.910000e+00
SN6r  TDA4  1  3.650000e-01  1.910000e+00
SN5r  TDA4  1  3.650000e-01  1.910000e+00
SN4r  TDA4  1  3.650000e-01  1.910000e+00
SN3r  TDA4  1  3.650000e-01  1.910000e+00
SN2r  TDA4  1  3.650000e-01  1.910000e+00
SN1r  TDA4  1  3.650000e-01  2.110000e+00
SP6dq  TDA4  1  3.650000e-01  1.750000e+00
SP5dq  TDA4  1  3.650000e-01  1.750000e+00
SP4dq  TDA4  1  3.650000e-01  1.910000e+00
SP3dq  TDA4  1  3.650000e-01  2.110000e+00
SP2dq  TDA4  1  3.650000e-01  2.570000e+00
SP1dq  TDA4  1  3.650000e-01  2.570000e+00
SN6dq  TDA4  1  3.650000e-01  2.570000e+00
SN5dq  TDA4  1  3.650000e-01  2.570000e+00
SN4dq  TDA4  1  3.650000e-01  2.570000e+00
SN3dq  TDA4  1  3.650000e-01  2.570000e+00
SN2dq  TDA4  1  3.650000e-01  2.570000e+00
SN1dq  TDA4  1  3.650000e-01  2.830000e+00
SP6aq  TDA4  1  3.650000e-01  1.750000e+00
SP5aq  TDA4  1  3.650000e-01  1.750000e+00
SP4aq  TDA4  1  3.650000e-01  1.910000e+00
SP3aq  TDA4  1  3.650000e-01  2.110000e+00
SP2aq  TDA4  1  3.650000e-01  2.110000e+00
SP1aq  TDA4  1  3.650000e-01  2.110000e+00
SN6aq  TDA4  1  3.650000e-01  2.110000e+00
SN5aq  TDA4  1  3.650000e-01  2.110000e+00
SN4aq  TDA4  1  3.650000e-01  2.110000e+00
SN3aq  TDA4  1  3.650000e-01  2.110000e+00
SN2aq  TDA4  1  3.650000e-01  2.110000e+00
SP6dh  TDA4  1  3.780000e-01  1.450000e+00
SP5dh  TDA4  1  3.780000e-01  1.450000e+00
SP4dh  TDA4  1  3.660000e-01  1.600000e+00
SP3dh  TDA4  1  3.650000e-01  1.750000e+00
SP2dh  TDA4  1  3.650000e-01  2.110000e+00
SP1dh  TDA4  1  3.650000e-01  2.110000e+00
SN6dh  TDA4  1  3.650000e-01  2.110000e+00
SN5dh  TDA4  1  3.650000e-01  2.110000e+00
SN4dh  TDA4  1  3.650000e-01  2.110000e+00
SN3dh  TDA4  1  3.650000e-01  2.110000e+00
SN2dh  TDA4  1  3.650000e-01  2.110000e+00
SN1dh  TDA4  1  3.650000e-01  2.340000e+00
SP6ah  TDA4  1  3.780000e-01  1.450000e+00
SP5ah  TDA4  1  3.780000e-01  1.450000e+00
SP4ah  TDA4  1  3.660000e-01  1.600000e+00
SP3ah  TDA4  1  3.650000e-01  1.750000e+00
SP2ah  TDA4  1  3.650000e-01  1.750000e+00
SP1ah  TDA4  1  3.650000e-01  1.750000e+00
SN6ah  TDA4  1  3.650000e-01  1.750000e+00
SN5ah  TDA4  1  3.650000e-01  1.750000e+00
SN4ah  TDA4  1  3.650000e-01  1.750000e+00
SN3ah  TDA4  1  3.650000e-01  1.750000e+00
SN2ah  TDA4  1  3.650000e-01  1.750000e+00
SP6dr  TDA4  1  3.780000e-01  1.450000e+00
SP5dr  TDA4  1  3.780000e-01  1.450000e+00
SP4dr  TDA4  1  3.660000e-01  1.600000e+00
SP3dr  TDA4  1  3.650000e-01  1.750000e+00
SP2dr  TDA4  1  3.650000e-01  2.110000e+00
SP1dr  TDA4  1  3.650000e-01  2.110000e+00
SN6dr  TDA4  1  3.650000e-01  2.110000e+00
SN5dr  TDA4  1  3.650000e-01  2.110000e+00
SN4dr  TDA4  1  3.650000e-01  2.110000e+00
SN3dr  TDA4  1  3.650000e-01  2.110000e+00
SN2dr  TDA4  1  3.650000e-01  2.110000e+00
SN1dr  TDA4  1  3.650000e-01  2.340000e+00
SP6ar  TDA4  1  3.780000e-01  1.450000e+00
SP5ar  TDA4  1  3.780000e-01  1.450000e+00
SP4ar  TDA4  1  3.660000e-01  1.600000e+00
SP3ar  TDA4  1  3.650000e-01  1.750000e+00
SP2ar  TDA4  1  3.650000e-01  1.750000e+00
SP1ar  TDA4  1  3.650000e-01  1.750000e+00
SN6ar  TDA4  1  3.650000e-01  1.750000e+00
SN5ar  TDA4  1  3.650000e-01  1.750000e+00
SN4ar  TDA4  1  3.650000e-01  1.750000e+00
SN3ar  TDA4  1  3.650000e-01  1.750000e+00
SN2ar  TDA4  1  3.650000e-01  1.750000e+00
TDA4  SN1aq  1  3.650000e-01  2.340000e+00
TDA4  SX1eq  1  3.650000e-01  1.910000e+00
TDA4  SX2eq  1  3.650000e-01  1.910000e+00
TDA4  SX3eq  1  3.650000e-01  2.110000e+00
TDA4  SX4eq  1  3.650000e-01  2.110000e+00
TDA4  SC1eq  1  3.660000e-01  1.600000e+00
TDA4  SC2eq  1  3.650000e-01  1.750000e+00
TDA4  SC3eq  1  3.650000e-01  1.910000e+00
TDA4  SC4eq  1  3.650000e-01  2.110000e+00
TDA4  SC5eq  1  3.650000e-01  2.110000e+00
TDA4  SC6eq  1  3.650000e-01  2.340000e+00
TDA4  SX1vq  1  3.650000e-01  2.340000e+00
TDA4  SX2vq  1  3.650000e-01  2.340000e+00
TDA4  SX3vq  1  3.650000e-01  2.570000e+00
TDA4  SX4vq  1  3.650000e-01  2.570000e+00
TDA4  SC1vq  1  3.650000e-01  1.910000e+00
TDA4  SC2vq  1  3.650000e-01  2.110000e+00
TDA4  SC3vq  1  3.650000e-01  2.340000e+00
TDA4  SC4vq  1  3.650000e-01  2.570000e+00
TDA4  SC5vq  1  3.650000e-01  2.570000e+00
TDA4  SC6vq  1  3.650000e-01  2.830000e+00
TDA4  SN1ah  1  3.650000e-01  1.910000e+00
TDA4  SX1eh  1  3.660000e-01  1.600000e+00
TDA4  SX2eh  1  3.660000e-01  1.600000e+00
TDA4  SX3eh  1  3.650000e-01  1.750000e+00
TDA4  SX4eh  1  3.650000e-01  1.750000e+00
TDA4  SC1eh  1  3.940000e-01  1.290000e+00
TDA4  SC2eh  1  3.780000e-01  1.450000e+00
TDA4  SC3eh  1  3.660000e-01  1.600000e+00
TDA4  SC4eh  1  3.650000e-01  1.750000e+00
TDA4  SC5eh  1  3.650000e-01  1.750000e+00
TDA4  SC6eh  1  3.650000e-01  1.910000e+00
TDA4  SX1vh  1  3.650000e-01  1.910000e+00
TDA4  SX2vh  1  3.650000e-01  1.910000e+00
TDA4  SX3vh  1  3.650000e-01  2.110000e+00
TDA4  SX4vh  1  3.650000e-01  2.110000e+00
TDA4  SC1vh  1  3.660000e-01  1.600000e+00
TDA4  SC2vh  1  3.650000e-01  1.750000e+00
TDA4  SC3vh  1  3.650000e-01  1.910000e+00
TDA4  SC4vh  1  3.650000e-01  2.110000e+00
TDA4  SC5vh  1  3.650000e-01  2.110000e+00
TDA4  SC6vh  1  3.650000e-01  2.340000e+00
TDA4  SN1ar  1  3.650000e-01  1.910000e+00
TDA4  SX1er  1  3.660000e-01  1.600000e+00
TDA4  SX2er  1  3.660000e-01  1.600000e+00
TDA4  SX3er  1  3.650000e-01  1.750000e+00
TDA4  SX4er  1  3.650000e-01  1.750000e+00
TDA4  SC1er  1  3.940000e-01  1.290000e+00
TDA4  SC2er  1  3.780000e-01  1.450000e+00
TDA4  SC3er  1  3.660000e-01  1.600000e+00
TDA4  SC4er  1  3.650000e-01  1.750000e+00
TDA4  SC5er  1  3.650000e-01  1.750000e+00
TDA4  SC6er  1  3.650000e-01  1.910000e+00
TDA4  SX1vr  1  3.650000e-01  1.910000e+00
TDA4  SX2vr  1  3.650000e-01  1.910000e+00
TDA4  SX3vr  1  3.650000e-01  2.110000e+00
TDA4  SX4vr  1  3.650000e-01  2.110000e+00
TDA4  SC1vr  1  3.660000e-01  1.600000e+00
TDA4  SC2vr  1  3.650000e-01  1.750000e+00
TDA4  SC3vr  1  3.650000e-01  1.910000e+00
TDA4  SC4vr  1  3.650000e-01  2.110000e+00
TDA4  SC5vr  1  3.650000e-01  2.110000e+00
TDA4  SC6vr  1  3.650000e-01  2.340000e+00
TDA4  SC6v  1  3.650000e-01  2.340000e+00
TDA4  SC5v  1  3.650000e-01  2.110000e+00
TDA4  SC4v  1  3.650000e-01  2.110000e+00
TDA4  SC3v  1  3.650000e-01  1.910000e+00
TDA4  SC2v  1  3.650000e-01  1.750000e+00
TDA4  SC1v  1  3.660000e-01  1.600000e+00
TDA4  SX4v  1  3.650000e-01  2.110000e+00
TDA4  SX3v  1  3.650000e-01  2.110000e+00
TDA4  SX2v  1  3.650000e-01  1.910000e+00
TDA4  SX1v  1  3.650000e-01  1.910000e+00
TDA4  SC6e  1  3.650000e-01  1.910000e+00
TDA4  SC5e  1  3.650000e-01  1.750000e+00
TDA4  SC4e  1  3.650000e-01  1.750000e+00
TDA4  SC3e  1  3.660000e-01  1.600000e+00
TDA4  SC2e  1  3.780000e-01  1.450000e+00
TDA4  SC1e  1  3.940000e-01  1.290000e+00
TDA4  SX4e  1  3.650000e-01  1.750000e+00
TDA4  SX3e  1  3.650000e-01  1.750000e+00
TDA4  SX2e  1  3.660000e-01  1.600000e+00
TDA4  SX1e  1  3.660000e-01  1.600000e+00
TDA4  SC6q  1  3.650000e-01  2.570000e+00
TDA4  SC5q  1  3.650000e-01  2.340000e+00
TDA4  SC4q  1  3.650000e-01  2.340000e+00
TDA4  SC3q  1  3.650000e-01  2.110000e+00
TDA4  SC2q  1  3.650000e-01  1.910000e+00
TDA4  SC1q  1  3.650000e-01  1.750000e+00
TDA4  SX4q  1  3.650000e-01  2.340000e+00
TDA4  SX3q  1  3.650000e-01  2.340000e+00
TDA4  SX2q  1  3.650000e-01  2.110000e+00
TDA4  SX1q  1  3.650000e-01  2.110000e+00
TDA4  SC6h  1  3.650000e-01  2.110000e+00
TDA4  SC5h  1  3.650000e-01  1.910000e+00
TDA4  SC4h  1  3.650000e-01  1.910000e+00
TDA4  SC3h  1  3.650000e-01  1.750000e+00
TDA4  SC2h  1  3.660000e-01  1.600000e+00
TDA4  SC1h  1  3.780000e-01  1.450000e+00
TDA4  SX4h  1  3.650000e-01  1.910000e+00
TDA4  SX3h  1  3.650000e-01  1.910000e+00
TDA4  SX2h  1  3.650000e-01  1.750000e+00
TDA4  SX1h  1  3.650000e-01  1.750000e+00
TDA4  SC6r  1  3.650000e-01  2.110000e+00
TDA4  SC5r  1  3.650000e-01  1.910000e+00
TDA4  SC4r  1  3.650000e-01  1.910000e+00
TDA4  SC3r  1  3.650000e-01  1.750000e+00
TDA4  SC2r  1  3.660000e-01  1.600000e+00
TDA4  SC1r  1  3.780000e-01  1.450000e+00
TDA4  SX4r  1  3.650000e-01  1.910000e+00
TDA4  SX3r  1  3.650000e-01  1.910000e+00
TDA4  SX2r  1  3.650000e-01  1.750000e+00
TDA4  SX1r  1  3.650000e-01  1.750000e+00
P6a  TDA4  1  3.950000e-01  1.670000e+00
P5a  TDA4  1  3.950000e-01  1.670000e+00
P4a  TDA4  1  3.950000e-01  1.850000e+00
P3a  TDA4  1  3.950000e-01  2.110000e+00
P2a  TDA4  1  3.950000e-01  2.110000e+00
P1a  TDA4  1  3.950000e-01  2.110000e+00
N6a  TDA4  1  3.950000e-01  2.110000e+00
N5a  TDA4  1  3.950000e-01  2.110000e+00
N4a  TDA4  1  3.950000e-01  2.110000e+00
N3a  TDA4  1  3.950000e-01  2.110000e+00
N2a  TDA4  1  3.950000e-01  2.110000e+00
N1a  TDA4  1  3.950000e-01  2.310000e+00
P6d  TDA4  1  3.950000e-01  1.670000e+00
P5d  TDA4  1  3.950000e-01  1.670000e+00
P4d  TDA4  1  3.950000e-01  1.850000e+00
P3d  TDA4  1  3.950000e-01  2.110000e+00
P2d  TDA4  1  3.950000e-01  2.500000e+00
P1d  TDA4  1  3.950000e-01  2.500000e+00
N6d  TDA4  1  3.950000e-01  2.500000e+00
N5d  TDA4  1  3.950000e-01  2.500000e+00
N4d  TDA4  1  3.950000e-01  2.500000e+00
N3d  TDA4  1  3.950000e-01  2.500000e+00
N2d  TDA4  1  3.950000e-01  2.500000e+00
N1d  TDA4  1  3.950000e-01  2.700000e+00
P6q  TDA4  1  3.950000e-01  2.110000e+00
P5q  TDA4  1  3.950000e-01  2.110000e+00
P4q  TDA4  1  3.950000e-01  2.310000e+00
P3q  TDA4  1  3.950000e-01  2.500000e+00
P2q  TDA4  1  3.950000e-01  2.700000e+00
P1q  TDA4  1  3.950000e-01  2.700000e+00
N6q  TDA4  1  3.950000e-01  2.700000e+00
N5q  TDA4  1  3.950000e-01  2.700000e+00
N4q  TDA4  1  3.950000e-01  2.700000e+00
N3q  TDA4  1  3.950000e-01  2.700000e+00
N2q  TDA4  1  3.950000e-01  2.700000e+00
N1q  TDA4  1  3.950000e-01  2.940000e+00
P6dq  TDA4  1  3.950000e-01  2.110000e+00
P5dq  TDA4  1  3.950000e-01  2.110000e+00
P4dq  TDA4  1  3.950000e-01  2.310000e+00
P3dq  TDA4  1  3.950000e-01  2.500000e+00
P2dq  TDA4  1  3.950000e-01  2.940000e+00
P1dq  TDA4  1  3.950000e-01  2.940000e+00
N6dq  TDA4  1  3.950000e-01  2.940000e+00
N5dq  TDA4  1  3.950000e-01  2.940000e+00
N4dq  TDA4  1  3.950000e-01  2.940000e+00
N3dq  TDA4  1  3.950000e-01  2.940000e+00
N2dq  TDA4  1  3.950000e-01  2.940000e+00
N1dq  TDA4  1  3.950000e-01  3.190000e+00
P6aq  TDA4  1  3.950000e-01  2.110000e+00
P5aq  TDA4  1  3.950000e-01  2.110000e+00
P4aq  TDA4  1  3.950000e-01  2.310000e+00
P3aq  TDA4  1  3.950000e-01  2.500000e+00
P2aq  TDA4  1  3.950000e-01  2.500000e+00
P1aq  TDA4  1  3.950000e-01  2.500000e+00
N6aq  TDA4  1  3.950000e-01  2.500000e+00
N5aq  TDA4  1  3.950000e-01  2.500000e+00
N4aq  TDA4  1  3.950000e-01  2.500000e+00
N3aq  TDA4  1  3.950000e-01  2.500000e+00
N2aq  TDA4  1  3.950000e-01  2.500000e+00
P6h  TDA4  1  3.950000e-01  1.670000e+00
P5h  TDA4  1  3.950000e-01  1.670000e+00
P4h  TDA4  1  3.950000e-01  1.850000e+00
P3h  TDA4  1  3.950000e-01  2.110000e+00
P2h  TDA4  1  3.950000e-01  2.310000e+00
P1h  TDA4  1  3.950000e-01  2.310000e+00
N6h  TDA4  1  3.950000e-01  2.310000e+00
N5h  TDA4  1  3.950000e-01  2.310000e+00
N4h  TDA4  1  3.950000e-01  2.310000e+00
N3h  TDA4  1  3.950000e-01  2.310000e+00
N2h  TDA4  1  3.950000e-01  2.310000e+00
N1h  TDA4  1  3.950000e-01  2.500000e+00
P6dh  TDA4  1  3.950000e-01  1.670000e+00
P5dh  TDA4  1  3.950000e-01  1.670000e+00
P4dh  TDA4  1  3.950000e-01  1.850000e+00
P3dh  TDA4  1  3.950000e-01  2.110000e+00
P2dh  TDA4  1  3.950000e-01  2.500000e+00
P1dh  TDA4  1  3.950000e-01  2.500000e+00
N6dh  TDA4  1  3.950000e-01  2.500000e+00
N5dh  TDA4  1  3.950000e-01  2.500000e+00
N4dh  TDA4  1  3.950000e-01  2.500000e+00
N3dh  TDA4  1  3.950000e-01  2.500000e+00
N2dh  TDA4  1  3.950000e-01  2.500000e+00
N1dh  TDA4  1  3.950000e-01  2.700000e+00
P6ah  TDA4  1  3.950000e-01  1.670000e+00
P5ah  TDA4  1  3.950000e-01  1.670000e+00
P4ah  TDA4  1  3.950000e-01  1.850000e+00
P3ah  TDA4  1  3.950000e-01  2.110000e+00
P2ah  TDA4  1  3.950000e-01  2.110000e+00
P1ah  TDA4  1  3.950000e-01  2.110000e+00
N6ah  TDA4  1  3.950000e-01  2.110000e+00
N5ah  TDA4  1  3.950000e-01  2.110000e+00
N4ah  TDA4  1  3.950000e-01  2.110000e+00
N3ah  TDA4  1  3.950000e-01  2.110000e+00
N2ah  TDA4  1  3.950000e-01  2.110000e+00
P6r  TDA4  1  3.950000e-01  1.670000e+00
P5r  TDA4  1  3.950000e-01  1.670000e+00
P4r  TDA4  1  3.950000e-01  1.850000e+00
P3r  TDA4  1  3.950000e-01  2.110000e+00
P2r  TDA4  1  3.950000e-01  2.310000e+00
P1r  TDA4  1  3.950000e-01  2.310000e+00
N6r  TDA4  1  3.950000e-01  2.310000e+00
N5r  TDA4  1  3.950000e-01  2.310000e+00
N4r  TDA4  1  3.950000e-01  2.310000e+00
N3r  TDA4  1  3.950000e-01  2.310000e+00
N2r  TDA4  1  3.950000e-01  2.310000e+00
N1r  TDA4  1  3.950000e-01  2.500000e+00
P6dr  TDA4  1  3.950000e-01  1.670000e+00
P5dr  TDA4  1  3.950000e-01  1.670000e+00
P4dr  TDA4  1  3.950000e-01  1.850000e+00
P3dr  TDA4  1  3.950000e-01  2.110000e+00
P2dr  TDA4  1  3.950000e-01  2.500000e+00
P1dr  TDA4  1  3.950000e-01  2.500000e+00
N6dr  TDA4  1  3.950000e-01  2.500000e+00
N5dr  TDA4  1  3.950000e-01  2.500000e+00
N4dr  TDA4  1  3.950000e-01  2.500000e+00
N3dr  TDA4  1  3.950000e-01  2.500000e+00
N2dr  TDA4  1  3.950000e-01  2.500000e+00
N1dr  TDA4  1  3.950000e-01  2.700000e+00
P6ar  TDA4  1  3.950000e-01  1.670000e+00
P5ar  TDA4  1  3.950000e-01  1.670000e+00
P4ar  TDA4  1  3.950000e-01  1.850000e+00
P3ar  TDA4  1  3.950000e-01  2.110000e+00
P2ar  TDA4  1  3.950000e-01  2.110000e+00
P1ar  TDA4  1  3.950000e-01  2.110000e+00
N6ar  TDA4  1  3.950000e-01  2.110000e+00
N5ar  TDA4  1  3.950000e-01  2.110000e+00
N4ar  TDA4  1  3.950000e-01  2.110000e+00
N3ar  TDA4  1  3.950000e-01  2.110000e+00
N2ar  TDA4  1  3.950000e-01  2.110000e+00
TDA4  C6v  1  3.950000e-01  2.700000e+00
TDA4  C5v  1  3.950000e-01  2.500000e+00
TDA4  C4v  1  3.950000e-01  2.500000e+00
TDA4  C3v  1  3.950000e-01  2.310000e+00
TDA4  C2v  1  3.950000e-01  2.110000e+00
TDA4  C1v  1  3.950000e-01  1.850000e+00
TDA4  X4v  1  3.950000e-01  2.500000e+00
TDA4  X3v  1  3.950000e-01  2.500000e+00
TDA4  X2v  1  3.950000e-01  2.310000e+00
TDA4  X1v  1  3.950000e-01  2.310000e+00
TDA4  C6e  1  3.950000e-01  2.310000e+00
TDA4  C5e  1  3.950000e-01  2.110000e+00
TDA4  C4e  1  3.950000e-01  2.110000e+00
TDA4  C3e  1  3.950000e-01  1.850000e+00
TDA4  C2e  1  3.950000e-01  1.670000e+00
TDA4  C1e  1  3.980000e-01  1.450000e+00
TDA4  X4e  1  3.950000e-01  2.110000e+00
TDA4  X3e  1  3.950000e-01  2.110000e+00
TDA4  X2e  1  3.950000e-01  1.850000e+00
TDA4  X1e  1  3.950000e-01  1.850000e+00
TDA4  C6q  1  3.950000e-01  2.940000e+00
TDA4  C5q  1  3.950000e-01  2.700000e+00
TDA4  C4q  1  3.950000e-01  2.700000e+00
TDA4  C3q  1  3.950000e-01  2.500000e+00
TDA4  C2q  1  3.950000e-01  2.310000e+00
TDA4  C1q  1  3.950000e-01  2.110000e+00
TDA4  X4q  1  3.950000e-01  2.700000e+00
TDA4  X3q  1  3.950000e-01  2.700000e+00
TDA4  X2q  1  3.950000e-01  2.500000e+00
TDA4  X1q  1  3.950000e-01  2.500000e+00
TDA4  N1aq  1  3.950000e-01  2.700000e+00
TDA4  X1eq  1  3.950000e-01  2.310000e+00
TDA4  X2eq  1  3.950000e-01  2.310000e+00
TDA4  X3eq  1  3.950000e-01  2.500000e+00
TDA4  X4eq  1  3.950000e-01  2.500000e+00
TDA4  C1eq  1  3.950000e-01  1.850000e+00
TDA4  C2eq  1  3.950000e-01  2.110000e+00
TDA4  C3eq  1  3.950000e-01  2.310000e+00
TDA4  C4eq  1  3.950000e-01  2.500000e+00
TDA4  C5eq  1  3.950000e-01  2.500000e+00
TDA4  C6eq  1  3.950000e-01  2.700000e+00
TDA4  X1vq  1  3.950000e-01  2.700000e+00
TDA4  X2vq  1  3.950000e-01  2.700000e+00
TDA4  X3vq  1  3.950000e-01  2.940000e+00
TDA4  X4vq  1  3.950000e-01  2.940000e+00
TDA4  C1vq  1  3.950000e-01  2.310000e+00
TDA4  C2vq  1  3.950000e-01  2.500000e+00
TDA4  C3vq  1  3.950000e-01  2.700000e+00
TDA4  C4vq  1  3.950000e-01  2.940000e+00
TDA4  C5vq  1  3.950000e-01  2.940000e+00
TDA4  C6vq  1  3.950000e-01  3.190000e+00
TDA4  C6h  1  3.950000e-01  2.500000e+00
TDA4  C5h  1  3.950000e-01  2.310000e+00
TDA4  C4h  1  3.950000e-01  2.310000e+00
TDA4  C3h  1  3.950000e-01  2.110000e+00
TDA4  C2h  1  3.950000e-01  1.850000e+00
TDA4  C1h  1  3.950000e-01  1.670000e+00
TDA4  X4h  1  3.950000e-01  2.310000e+00
TDA4  X3h  1  3.950000e-01  2.310000e+00
TDA4  X2h  1  3.950000e-01  2.110000e+00
TDA4  X1h  1  3.950000e-01  2.110000e+00
TDA4  N1ah  1  3.950000e-01  2.310000e+00
TDA4  X1eh  1  3.950000e-01  1.850000e+00
TDA4  X2eh  1  3.950000e-01  1.850000e+00
TDA4  X3eh  1  3.950000e-01  2.110000e+00
TDA4  X4eh  1  3.950000e-01  2.110000e+00
TDA4  C1eh  1  3.980000e-01  1.450000e+00
TDA4  C2eh  1  3.950000e-01  1.670000e+00
TDA4  C3eh  1  3.950000e-01  1.850000e+00
TDA4  C4eh  1  3.950000e-01  2.110000e+00
TDA4  C5eh  1  3.950000e-01  2.110000e+00
TDA4  C6eh  1  3.950000e-01  2.310000e+00
TDA4  X1vh  1  3.950000e-01  2.310000e+00
TDA4  X2vh  1  3.950000e-01  2.310000e+00
TDA4  X3vh  1  3.950000e-01  2.500000e+00
TDA4  X4vh  1  3.950000e-01  2.500000e+00
TDA4  C1vh  1  3.950000e-01  1.850000e+00
TDA4  C2vh  1  3.950000e-01  2.110000e+00
TDA4  C3vh  1  3.950000e-01  2.310000e+00
TDA4  C4vh  1  3.950000e-01  2.500000e+00
TDA4  C5vh  1  3.950000e-01  2.500000e+00
TDA4  C6vh  1  3.950000e-01  2.700000e+00
TDA4  C6r  1  3.950000e-01  2.500000e+00
TDA4  C5r  1  3.950000e-01  2.310000e+00
TDA4  C4r  1  3.950000e-01  2.310000e+00
TDA4  C3r  1  3.950000e-01  2.110000e+00
TDA4  C2r  1  3.950000e-01  1.850000e+00
TDA4  C1r  1  3.950000e-01  1.670000e+00
TDA4  X4r  1  3.950000e-01  2.310000e+00
TDA4  X3r  1  3.950000e-01  2.310000e+00
TDA4  X2r  1  3.950000e-01  2.110000e+00
TDA4  X1r  1  3.950000e-01  2.110000e+00
TDA4  N1ar  1  3.950000e-01  2.310000e+00
TDA4  X1er  1  3.950000e-01  1.850000e+00
TDA4  X2er  1  3.950000e-01  1.850000e+00
TDA4  X3er  1  3.950000e-01  2.110000e+00
TDA4  X4er  1  3.950000e-01  2.110000e+00
TDA4  C1er  1  3.980000e-01  1.450000e+00
TDA4  C2er  1  3.950000e-01  1.670000e+00
TDA4  C3er  1  3.950000e-01  1.850000e+00
TDA4  C4er  1  3.950000e-01  2.110000e+00
TDA4  C5er  1  3.950000e-01  2.110000e+00
TDA4  C6er  1  3.950000e-01  2.310000e+00
TDA4  X1vr  1  3.950000e-01  2.310000e+00
TDA4  X2vr  1  3.950000e-01  2.310000e+00
TDA4  X3vr  1  3.950000e-01  2.500000e+00
TDA4  X4vr  1  3.950000e-01  2.500000e+00
TDA4  C1vr  1  3.950000e-01  1.850000e+00
TDA4  C2vr  1  3.950000e-01  2.110000e+00
TDA4  C3vr  1  3.950000e-01  2.310000e+00
TDA4  C4vr  1  3.950000e-01  2.500000e+00
TDA4  C5vr  1  3.950000e-01  2.500000e+00
TDA4  C6vr  1  3.950000e-01  2.700000e+00
TP6d  TDA4  1  3.660000e-01  9.350000e-01
TP5d  TDA4  1  3.660000e-01  9.350000e-01
TP4d  TDA4  1  3.520000e-01  1.050000e+00
TP3d  TDA4  1  3.400000e-01  1.230000e+00
TP2d  TDA4  1  3.400000e-01  2.280000e+00
TP1d  TDA4  1  3.400000e-01  2.280000e+00
TN6d  TDA4  1  3.400000e-01  2.280000e+00
TN5d  TDA4  1  3.400000e-01  2.280000e+00
TN4d  TDA4  1  3.400000e-01  2.280000e+00
TN3d  TDA4  1  3.400000e-01  2.280000e+00
TN2d  TDA4  1  3.400000e-01  2.280000e+00
TN1d  TDA4  1  3.400000e-01  2.500000e+00
TP6dq  TDA4  1  3.400000e-01  1.230000e+00
TP5dq  TDA4  1  3.400000e-01  1.230000e+00
TP4dq  TDA4  1  3.400000e-01  2.020000e+00
TP3dq  TDA4  1  3.400000e-01  2.280000e+00
TP2dq  TDA4  1  3.400000e-01  2.740000e+00
TP1dq  TDA4  1  3.400000e-01  2.740000e+00
TN6dq  TDA4  1  3.400000e-01  2.740000e+00
TN5dq  TDA4  1  3.400000e-01  2.740000e+00
TN4dq  TDA4  1  3.400000e-01  2.740000e+00
TN3dq  TDA4  1  3.400000e-01  2.740000e+00
TN2dq  TDA4  1  3.400000e-01  2.740000e+00
TN1dq  TDA4  1  3.400000e-01  2.990000e+00
TP6dh  TDA4  1  3.660000e-01  9.350000e-01
TP5dh  TDA4  1  3.660000e-01  9.350000e-01
TP4dh  TDA4  1  3.520000e-01  1.050000e+00
TP3dh  TDA4  1  3.400000e-01  1.230000e+00
TP2dh  TDA4  1  3.400000e-01  2.280000e+00
TP1dh  TDA4  1  3.400000e-01  2.280000e+00
TN6dh  TDA4  1  3.400000e-01  2.280000e+00
TN5dh  TDA4  1  3.400000e-01  2.280000e+00
TN4dh  TDA4  1  3.400000e-01  2.280000e+00
TN3dh  TDA4  1  3.400000e-01  2.280000e+00
TN2dh  TDA4  1  3.400000e-01  2.280000e+00
TN1dh  TDA4  1  3.400000e-01  2.500000e+00
TP6dr  TDA4  1  3.660000e-01  9.350000e-01
TP5dr  TDA4  1  3.660000e-01  9.350000e-01
TP4dr  TDA4  1  3.520000e-01  1.050000e+00
TP3dr  TDA4  1  3.400000e-01  1.230000e+00
TP2dr  TDA4  1  3.400000e-01  2.280000e+00
TP1dr  TDA4  1  3.400000e-01  2.280000e+00
TN6dr  TDA4  1  3.400000e-01  2.280000e+00
TN5dr  TDA4  1  3.400000e-01  2.280000e+00
TN4dr  TDA4  1  3.400000e-01  2.280000e+00
TN3dr  TDA4  1  3.400000e-01  2.280000e+00
TN2dr  TDA4  1  3.400000e-01  2.280000e+00
TN1dr  TDA4  1  3.400000e-01  2.500000e+00
TDA4  TC6v  1  3.400000e-01  2.020000e+00
TDA4  TC5v  1  3.400000e-01  1.770000e+00
TDA4  TC4v  1  3.400000e-01  1.770000e+00
TDA4  TC3v  1  3.400000e-01  1.510000e+00
TDA4  TC2v  1  3.400000e-01  1.230000e+00
TDA4  TC1v  1  3.520000e-01  1.050000e+00
TDA4  TX4v  1  3.400000e-01  1.770000e+00
TDA4  TX3v  1  3.400000e-01  1.770000e+00
TDA4  TX2v  1  3.400000e-01  1.510000e+00
TDA4  TX1v  1  3.400000e-01  1.510000e+00
TDA4  TX1vq  1  3.400000e-01  2.020000e+00
TDA4  TX2vq  1  3.400000e-01  2.020000e+00
TDA4  TX3vq  1  3.400000e-01  2.280000e+00
TDA4  TX4vq  1  3.400000e-01  2.280000e+00
TDA4  TC1vq  1  3.400000e-01  1.510000e+00
TDA4  TC2vq  1  3.400000e-01  1.770000e+00
TDA4  TC3vq  1  3.400000e-01  2.020000e+00
TDA4  TC4vq  1  3.400000e-01  2.280000e+00
TDA4  TC5vq  1  3.400000e-01  2.280000e+00
TDA4  TC6vq  1  3.400000e-01  2.500000e+00
TDA4  TX1vh  1  3.400000e-01  1.510000e+00
TDA4  TX2vh  1  3.400000e-01  1.510000e+00
TDA4  TX3vh  1  3.400000e-01  1.770000e+00
TDA4  TX4vh  1  3.400000e-01  1.770000e+00
TDA4  TC1vh  1  3.520000e-01  1.050000e+00
TDA4  TC2vh  1  3.400000e-01  1.230000e+00
TDA4  TC3vh  1  3.400000e-01  1.510000e+00
TDA4  TC4vh  1  3.400000e-01  1.770000e+00
TDA4  TC5vh  1  3.400000e-01  1.770000e+00
TDA4  TC6vh  1  3.400000e-01  2.020000e+00
TDA4  TX1vr  1  3.400000e-01  1.510000e+00
TDA4  TX2vr  1  3.400000e-01  1.510000e+00
TDA4  TX3vr  1  3.400000e-01  1.770000e+00
TDA4  TX4vr  1  3.400000e-01  1.770000e+00
TDA4  TC1vr  1  3.520000e-01  1.050000e+00
TDA4  TC2vr  1  3.400000e-01  1.230000e+00
TDA4  TC3vr  1  3.400000e-01  1.510000e+00
TDA4  TC4vr  1  3.400000e-01  1.770000e+00
TDA4  TC5vr  1  3.400000e-01  1.770000e+00
TDA4  TC6vr  1  3.400000e-01  2.020000e+00
TDA4  TC6e  1  3.400000e-01  1.510000e+00
TDA4  TC5e  1  3.400000e-01  1.230000e+00
TDA4  TC4e  1  3.400000e-01  1.230000e+00
TDA4  TC3e  1  3.520000e-01  1.050000e+00
TDA4  TC2e  1  3.660000e-01  9.350000e-01
TDA4  TC1e  1  3.850000e-01  8.550000e-01
TDA4  TX4e  1  3.400000e-01  1.230000e+00
TDA4  TX3e  1  3.400000e-01  1.230000e+00
TDA4  TX2e  1  3.520000e-01  1.050000e+00
TDA4  TX1e  1  3.520000e-01  1.050000e+00
TDA4  TX1eq  1  3.400000e-01  1.510000e+00
TDA4  TX2eq  1  3.400000e-01  1.510000e+00
TDA4  TX3eq  1  3.400000e-01  1.770000e+00
TDA4  TX4eq  1  3.400000e-01  1.770000e+00
TDA4  TC1eq  1  3.520000e-01  1.050000e+00
TDA4  TC2eq  1  3.400000e-01  1.230000e+00
TDA4  TC3eq  1  3.400000e-01  1.510000e+00
TDA4  TC4eq  1  3.400000e-01  1.770000e+00
TDA4  TC5eq  1  3.400000e-01  1.770000e+00
TDA4  TC6eq  1  3.400000e-01  2.020000e+00
TDA4  TX1eh  1  3.520000e-01  1.050000e+00
TDA4  TX2eh  1  3.520000e-01  1.050000e+00
TDA4  TX3eh  1  3.400000e-01  1.230000e+00
TDA4  TX4eh  1  3.400000e-01  1.230000e+00
TDA4  TC1eh  1  3.850000e-01  8.550000e-01
TDA4  TC2eh  1  3.660000e-01  9.350000e-01
TDA4  TC3eh  1  3.520000e-01  1.050000e+00
TDA4  TC4eh  1  3.400000e-01  1.230000e+00
TDA4  TC5eh  1  3.400000e-01  1.230000e+00
TDA4  TC6eh  1  3.400000e-01  1.510000e+00
TDA4  TX1er  1  3.520000e-01  1.050000e+00
TDA4  TX2er  1  3.520000e-01  1.050000e+00
TDA4  TX3er  1  3.400000e-01  1.230000e+00
TDA4  TX4er  1  3.400000e-01  1.230000e+00
TDA4  TC1er  1  3.850000e-01  8.550000e-01
TDA4  TC2er  1  3.660000e-01  9.350000e-01
TDA4  TC3er  1  3.520000e-01  1.050000e+00
TDA4  TC4er  1  3.400000e-01  1.230000e+00
TDA4  TC5er  1  3.400000e-01  1.230000e+00
TDA4  TC6er  1  3.400000e-01  1.510000e+00
TDA4  TN1aq  1  3.400000e-01  2.020000e+00
TDA4  TN1ah  1  3.400000e-01  1.510000e+00
TDA4  TN1ar  1  3.400000e-01  1.510000e+00
TP6a  TDA4  1  3.660000e-01  9.350000e-01
TP5a  TDA4  1  3.660000e-01  9.350000e-01
TP4a  TDA4  1  3.520000e-01  1.050000e+00
TP3a  TDA4  1  3.400000e-01  1.230000e+00
TP2a  TDA4  1  3.400000e-01  1.230000e+00
TP1a  TDA4  1  3.400000e-01  1.230000e+00
TN6a  TDA4  1  3.400000e-01  1.230000e+00
TN5a  TDA4  1  3.400000e-01  1.230000e+00
TN4a  TDA4  1  3.400000e-01  1.230000e+00
TN3a  TDA4  1  3.400000e-01  1.230000e+00
TN2a  TDA4  1  3.400000e-01  1.230000e+00
TDA4  TN1a  1  3.400000e-01  1.510000e+00
TP6q  TDA4  1  3.400000e-01  1.230000e+00
TP5q  TDA4  1  3.400000e-01  1.230000e+00
TP4q  TDA4  1  3.400000e-01  1.510000e+00
TP3q  TDA4  1  3.400000e-01  1.770000e+00
TP2q  TDA4  1  3.400000e-01  2.020000e+00
TP1q  TDA4  1  3.400000e-01  2.020000e+00
TN6q  TDA4  1  3.400000e-01  2.020000e+00
TN5q  TDA4  1  3.400000e-01  2.020000e+00
TN4q  TDA4  1  3.400000e-01  2.020000e+00
TN3q  TDA4  1  3.400000e-01  2.020000e+00
TN2q  TDA4  1  3.400000e-01  2.020000e+00
TN1q  TDA4  1  3.400000e-01  2.280000e+00
TDA4  TC6q  1  3.400000e-01  2.280000e+00
TDA4  TC5q  1  3.400000e-01  2.020000e+00
TDA4  TC4q  1  3.400000e-01  2.020000e+00
TDA4  TC3q  1  3.400000e-01  1.770000e+00
TDA4  TC2q  1  3.400000e-01  1.510000e+00
TDA4  TC1q  1  3.400000e-01  1.230000e+00
TDA4  TX4q  1  3.400000e-01  2.020000e+00
TDA4  TX3q  1  3.400000e-01  2.020000e+00
TDA4  TX2q  1  3.400000e-01  1.770000e+00
TDA4  TX1q  1  3.400000e-01  1.770000e+00
TP6h  TDA4  1  3.660000e-01  9.350000e-01
TP5h  TDA4  1  3.660000e-01  9.350000e-01
TP4h  TDA4  1  3.520000e-01  1.050000e+00
TP3h  TDA4  1  3.400000e-01  1.230000e+00
TP2h  TDA4  1  3.400000e-01  1.510000e+00
TP1h  TDA4  1  3.400000e-01  1.510000e+00
TN6h  TDA4  1  3.400000e-01  1.510000e+00
TN5h  TDA4  1  3.400000e-01  1.510000e+00
TN4h  TDA4  1  3.400000e-01  1.510000e+00
TN3h  TDA4  1  3.400000e-01  1.510000e+00
TN2h  TDA4  1  3.400000e-01  1.510000e+00
TN1h  TDA4  1  3.400000e-01  1.770000e+00
TDA4  TC6h  1  3.400000e-01  1.770000e+00
TDA4  TC5h  1  3.400000e-01  1.510000e+00
TDA4  TC4h  1  3.400000e-01  1.510000e+00
TDA4  TC3h  1  3.400000e-01  1.230000e+00
TDA4  TC2h  1  3.520000e-01  1.050000e+00
TDA4  TC1h  1  3.660000e-01  9.350000e-01
TDA4  TX4h  1  3.400000e-01  1.510000e+00
TDA4  TX3h  1  3.400000e-01  1.510000e+00
TDA4  TX2h  1  3.400000e-01  1.230000e+00
TDA4  TX1h  1  3.400000e-01  1.230000e+00
TP6r  TDA4  1  3.660000e-01  9.350000e-01
TP5r  TDA4  1  3.660000e-01  9.350000e-01
TP4r  TDA4  1  3.520000e-01  1.050000e+00
TP3r  TDA4  1  3.400000e-01  1.230000e+00
TP2r  TDA4  1  3.400000e-01  1.510000e+00
TP1r  TDA4  1  3.400000e-01  1.510000e+00
TN6r  TDA4  1  3.400000e-01  1.510000e+00
TN5r  TDA4  1  3.400000e-01  1.510000e+00
TN4r  TDA4  1  3.400000e-01  1.510000e+00
TN3r  TDA4  1  3.400000e-01  1.510000e+00
TN2r  TDA4  1  3.400000e-01  1.510000e+00
TN1r  TDA4  1  3.400000e-01  1.770000e+00
TDA4  TC6r  1  3.400000e-01  1.770000e+00
TDA4  TC5r  1  3.400000e-01  1.510000e+00
TDA4  TC4r  1  3.400000e-01  1.510000e+00
TDA4  TC3r  1  3.400000e-01  1.230000e+00
TDA4  TC2r  1  3.520000e-01  1.050000e+00
TDA4  TC1r  1  3.660000e-01  9.350000e-01
TDA4  TX4r  1  3.400000e-01  1.510000e+00
TDA4  TX3r  1  3.400000e-01  1.510000e+00
TDA4  TX2r  1  3.400000e-01  1.230000e+00
TDA4  TX1r  1  3.400000e-01  1.230000e+00
TP6aq  TDA4  1  3.400000e-01  1.230000e+00
TP5aq  TDA4  1  3.400000e-01  1.230000e+00
TP4aq  TDA4  1  3.400000e-01  1.510000e+00
TP3aq  TDA4  1  3.400000e-01  1.770000e+00
TP2aq  TDA4  1  3.400000e-01  1.770000e+00
TP1aq  TDA4  1  3.400000e-01  1.770000e+00
TN6aq  TDA4  1  3.400000e-01  1.770000e+00
TN5aq  TDA4  1  3.400000e-01  1.770000e+00
TN4aq  TDA4  1  3.400000e-01  1.770000e+00
TN3aq  TDA4  1  3.400000e-01  1.770000e+00
TN2aq  TDA4  1  3.400000e-01  1.770000e+00
TP6ah  TDA4  1  3.660000e-01  9.350000e-01
TP5ah  TDA4  1  3.660000e-01  9.350000e-01
TP4ah  TDA4  1  3.520000e-01  1.050000e+00
TP3ah  TDA4  1  3.400000e-01  1.230000e+00
TP2ah  TDA4  1  3.400000e-01  1.230000e+00
TP1ah  TDA4  1  3.400000e-01  1.230000e+00
TN6ah  TDA4  1  3.400000e-01  1.230000e+00
TN5ah  TDA4  1  3.400000e-01  1.230000e+00
TN4ah  TDA4  1  3.400000e-01  1.230000e+00
TN3ah  TDA4  1  3.400000e-01  1.230000e+00
TN2ah  TDA4  1  3.400000e-01  1.230000e+00
TP6ar  TDA4  1  3.660000e-01  9.350000e-01
TP5ar  TDA4  1  3.660000e-01  9.350000e-01
TP4ar  TDA4  1  3.520000e-01  1.050000e+00
TP3ar  TDA4  1  3.400000e-01  1.230000e+00
TP2ar  TDA4  1  3.400000e-01  1.230000e+00
TP1ar  TDA4  1  3.400000e-01  1.230000e+00
TN6ar  TDA4  1  3.400000e-01  1.230000e+00
TN5ar  TDA4  1  3.400000e-01  1.230000e+00
TN4ar  TDA4  1  3.400000e-01  1.230000e+00
TN3ar  TDA4  1  3.400000e-01  1.230000e+00
TN2ar  TDA4  1  3.400000e-01  1.230000e+00
W  TDA4  1  3.850000e-01  1.550000e+00
SW  TDA4  1  3.750000e-01  1.130000e+00
TW  TDA4  1  3.530000e-01  1.330000e+00
TDA4  D  1  3.950000e-01  2.580000e+00
TDA4  SD  1  3.650000e-01  7.023000e+00
TDA4  TD  1  3.400000e-01  8.279000e+00
TDA4  Q5  1  3.950000e-01  3.232000e+00
TDA4  SQ5  1  3.650000e-01  4.174000e+00
TDA4  TQ5  1  3.400000e-01  5.810000e+00
TDA4  Q5p  1  3.950000e-01  3.722000e+00
TDA4  SQ5p  1  3.650000e-01  4.704000e+00
TDA4  TQ5p  1  3.400000e-01  6.520000e+00
TDA4  Q5n  1  3.950000e-01  2.992000e+00
TDA4  SQ5n  1  3.650000e-01  3.944000e+00
TDA4  TQ5n  1  3.400000e-01  5.550000e+00
TDA4  Q4  1  3.950000e-01  3.250000e+00
TDA4  SQ4  1  3.650000e-01  4.271000e+00
TDA4  TQ4  1  3.400000e-01  6.022000e+00
TDA4  Q4p  1  3.950000e-01  3.740000e+00
TDA4  SQ4p  1  3.650000e-01  4.801000e+00
TDA4  TQ4p  1  3.400000e-01  6.732000e+00
TDA4  Q4n  1  3.950000e-01  3.010000e+00
TDA4  SQ4n  1  3.650000e-01  4.041000e+00
TDA4  TQ4n  1  3.400000e-01  5.762000e+00
TDA4  Q3  1  3.950000e-01  3.282000e+00
TDA4  SQ3  1  3.650000e-01  4.448000e+00
TDA4  TQ3  1  3.400000e-01  6.411000e+00
TDA4  Q3p  1  3.950000e-01  3.772000e+00
TDA4  SQ3p  1  3.650000e-01  4.978000e+00
TDA4  TQ3p  1  3.400000e-01  7.121000e+00
TDA4  Q3n  1  3.950000e-01  3.042000e+00
TDA4  SQ3n  1  3.650000e-01  4.218000e+00
TDA4  TQ3n  1  3.400000e-01  6.151000e+00
TDA4  Q2  1  3.950000e-01  3.306000e+00
TDA4  SQ2  1  3.650000e-01  4.576000e+00
TDA4  TQ2  1  3.400000e-01  6.694000e+00
TDA4  Q2p  1  3.950000e-01  3.796000e+00
TDA4  SQ2p  1  3.650000e-01  5.106000e+00
TDA4  TQ2p  1  3.400000e-01  7.404000e+00
TDA4  Q2n  1  3.950000e-01  3.066000e+00
TDA4  SQ2n  1  3.650000e-01  4.346000e+00
TDA4  TQ2n  1  3.400000e-01  6.434000e+00
TDA4  Q1  1  3.950000e-01  3.086000e+00
TDA4  SQ1  1  3.650000e-01  4.458000e+00
TDA4  TQ1  1  3.400000e-01  6.679000e+00
TDA4  Q1p  1  3.950000e-01  3.576000e+00
TDA4  SQ1p  1  3.650000e-01  4.948000e+00
TDA4  TQ1p  1  3.400000e-01  7.399000e+00
TDA4  Q1n  1  3.950000e-01  2.886000e+00
TDA4  SQ1n  1  3.650000e-01  4.228000e+00
TDA4  TQ1n  1  3.400000e-01  6.429000e+00
P6  TDY0  1  4.300000e-01  2.320000e+00
SP6  TDY0  1  4.100000e-01  1.910000e+00
TP6  TDY0  1  3.780000e-01  1.450000e+00
P5  TDY0  1  4.300000e-01  2.320000e+00
SP5  TDY0  1  4.100000e-01  1.910000e+00
TP5  TDY0  1  3.780000e-01  1.450000e+00
P4  TDY0  1  4.300000e-01  2.530000e+00
SP4  TDY0  1  4.100000e-01  2.040000e+00
TP4  TDY0  1  3.660000e-01  1.600000e+00
P3  TDY0  1  4.300000e-01  2.770000e+00
SP3  TDY0  1  4.100000e-01  2.200000e+00
TP3  TDY0  1  3.650000e-01  1.750000e+00
P2  TDY0  1  4.300000e-01  2.920000e+00
SP2  TDY0  1  4.100000e-01  2.350000e+00
TP2  TDY0  1  3.650000e-01  1.910000e+00
P1  TDY0  1  4.300000e-01  2.920000e+00
SP1  TDY0  1  4.100000e-01  2.350000e+00
TP1  TDY0  1  3.650000e-01  1.910000e+00
N6  TDY0  1  4.300000e-01  2.920000e+00
SN6  TDY0  1  4.100000e-01  2.350000e+00
TN6  TDY0  1  3.650000e-01  1.910000e+00
N5  TDY0  1  4.300000e-01  2.920000e+00
SN5  TDY0  1  4.100000e-01  2.350000e+00
TN5  TDY0  1  3.650000e-01  1.910000e+00
N4  TDY0  1  4.300000e-01  2.920000e+00
SN4  TDY0  1  4.100000e-01  2.350000e+00
TN4  TDY0  1  3.650000e-01  1.910000e+00
N3  TDY0  1  4.300000e-01  2.920000e+00
SN3  TDY0  1  4.100000e-01  2.350000e+00
TN3  TDY0  1  3.650000e-01  1.910000e+00
N2  TDY0  1  4.300000e-01  2.920000e+00
SN2  TDY0  1  4.100000e-01  2.350000e+00
TN2  TDY0  1  3.650000e-01  1.910000e+00
N1  TDY0  1  4.300000e-01  3.160000e+00
SN1  TDY0  1  4.100000e-01  2.600000e+00
TN1  TDY0  1  3.650000e-01  2.110000e+00
TDY0  C6  1  4.300000e-01  3.160000e+00
TDY0  SC6  1  4.100000e-01  2.600000e+00
TDY0  TC6  1  3.650000e-01  2.110000e+00
TDY0  C5  1  4.300000e-01  2.920000e+00
TDY0  SC5  1  4.100000e-01  2.350000e+00
TDY0  TC5  1  3.650000e-01  1.910000e+00
TDY0  C4  1  4.300000e-01  2.920000e+00
TDY0  SC4  1  4.100000e-01  2.350000e+00
TDY0  TC4  1  3.650000e-01  1.910000e+00
TDY0  C3  1  4.300000e-01  2.770000e+00
TDY0  SC3  1  4.100000e-01  2.200000e+00
TDY0  TC3  1  3.650000e-01  1.750000e+00
TDY0  C2  1  4.300000e-01  2.530000e+00
TDY0  SC2  1  4.100000e-01  2.040000e+00
TDY0  TC2  1  3.660000e-01  1.600000e+00
TDY0  C1  1  4.300000e-01  2.320000e+00
TDY0  SC1  1  4.100000e-01  1.910000e+00
TDY0  TC1  1  3.780000e-01  1.450000e+00
TDY0  X4  1  4.300000e-01  2.920000e+00
TDY0  SX4  1  4.100000e-01  2.350000e+00
TDY0  TX4  1  3.650000e-01  1.910000e+00
TDY0  X3  1  4.300000e-01  2.920000e+00
TDY0  SX3  1  4.100000e-01  2.350000e+00
TDY0  TX3  1  3.650000e-01  1.910000e+00
TDY0  X2  1  4.300000e-01  2.770000e+00
TDY0  SX2  1  4.100000e-01  2.200000e+00
TDY0  TX2  1  3.650000e-01  1.750000e+00
TDY0  X1  1  4.300000e-01  2.770000e+00
TDY0  SX1  1  4.100000e-01  2.200000e+00
TDY0  TX1  1  3.650000e-01  1.750000e+00
TDY0  SN1dq  1  4.100000e-01  2.840000e+00
TDY0  SX1eq  1  4.100000e-01  2.840000e+00
TDY0  SX2eq  1  4.100000e-01  2.840000e+00
TDY0  SX3eq  1  4.100000e-01  3.070000e+00
TDY0  SX4eq  1  4.100000e-01  3.070000e+00
TDY0  SC1eq  1  4.100000e-01  2.350000e+00
TDY0  SC2eq  1  4.100000e-01  2.600000e+00
TDY0  SC3eq  1  4.100000e-01  2.840000e+00
TDY0  SC4eq  1  4.100000e-01  3.070000e+00
TDY0  SC5eq  1  4.100000e-01  3.070000e+00
TDY0  SC6eq  1  4.100000e-01  3.310000e+00
TDY0  SX1vq  1  4.100000e-01  2.350000e+00
TDY0  SX2vq  1  4.100000e-01  2.350000e+00
TDY0  SX3vq  1  4.100000e-01  2.600000e+00
TDY0  SX4vq  1  4.100000e-01  2.600000e+00
TDY0  SC1vq  1  4.100000e-01  2.040000e+00
TDY0  SC2vq  1  4.100000e-01  2.200000e+00
TDY0  SC3vq  1  4.100000e-01  2.350000e+00
TDY0  SC4vq  1  4.100000e-01  2.600000e+00
TDY0  SC5vq  1  4.100000e-01  2.600000e+00
TDY0  SC6vq  1  4.100000e-01  2.840000e+00
TDY0  SN1aq  1  4.100000e-01  3.310000e+00
TDY0  SN1dh  1  4.100000e-01  2.350000e+00
TDY0  SX1eh  1  4.100000e-01  2.350000e+00
TDY0  SX2eh  1  4.100000e-01  2.350000e+00
TDY0  SX3eh  1  4.100000e-01  2.600000e+00
TDY0  SX4eh  1  4.100000e-01  2.600000e+00
TDY0  SC1eh  1  4.100000e-01  2.040000e+00
TDY0  SC2eh  1  4.100000e-01  2.200000e+00
TDY0  SC3eh  1  4.100000e-01  2.350000e+00
TDY0  SC4eh  1  4.100000e-01  2.600000e+00
TDY0  SC5eh  1  4.100000e-01  2.600000e+00
TDY0  SC6eh  1  4.100000e-01  2.840000e+00
TDY0  SX1vh  1  4.100000e-01  2.040000e+00
TDY0  SX2vh  1  4.100000e-01  2.040000e+00
TDY0  SX3vh  1  4.100000e-01  2.200000e+00
TDY0  SX4vh  1  4.100000e-01  2.200000e+00
TDY0  SC1vh  1  4.100000e-01  1.750000e+00
TDY0  SC2vh  1  4.100000e-01  1.910000e+00
TDY0  SC3vh  1  4.100000e-01  2.040000e+00
TDY0  SC4vh  1  4.100000e-01  2.200000e+00
TDY0  SC5vh  1  4.100000e-01  2.200000e+00
TDY0  SC6vh  1  4.100000e-01  2.350000e+00
TDY0  SN1ah  1  4.100000e-01  2.840000e+00
TDY0  SN1dr  1  4.100000e-01  2.350000e+00
TDY0  SX1er  1  4.100000e-01  2.350000e+00
TDY0  SX2er  1  4.100000e-01  2.350000e+00
TDY0  SX3er  1  4.100000e-01  2.600000e+00
TDY0  SX4er  1  4.100000e-01  2.600000e+00
TDY0  SC1er  1  4.100000e-01  2.040000e+00
TDY0  SC2er  1  4.100000e-01  2.200000e+00
TDY0  SC3er  1  4.100000e-01  2.350000e+00
TDY0  SC4er  1  4.100000e-01  2.600000e+00
TDY0  SC5er  1  4.100000e-01  2.600000e+00
TDY0  SC6er  1  4.100000e-01  2.840000e+00
TDY0  SX1vr  1  4.100000e-01  2.040000e+00
TDY0  SX2vr  1  4.100000e-01  2.040000e+00
TDY0  SX3vr  1  4.100000e-01  2.200000e+00
TDY0  SX4vr  1  4.100000e-01  2.200000e+00
TDY0  SC1vr  1  4.100000e-01  1.750000e+00
TDY0  SC2vr  1  4.100000e-01  1.910000e+00
TDY0  SC3vr  1  4.100000e-01  2.040000e+00
TDY0  SC4vr  1  4.100000e-01  2.200000e+00
TDY0  SC5vr  1  4.100000e-01  2.200000e+00
TDY0  SC6vr  1  4.100000e-01  2.350000e+00
TDY0  SN1ar  1  4.100000e-01  2.840000e+00
SP6d  TDY0  1  4.100000e-01  1.910000e+00
SP5d  TDY0  1  4.100000e-01  1.910000e+00
SP4d  TDY0  1  4.100000e-01  2.040000e+00
SP3d  TDY0  1  4.100000e-01  2.200000e+00
SP2d  TDY0  1  4.100000e-01  2.200000e+00
SP1d  TDY0  1  4.100000e-01  2.200000e+00
SN6d  TDY0  1  4.100000e-01  2.200000e+00
SN5d  TDY0  1  4.100000e-01  2.200000e+00
SN4d  TDY0  1  4.100000e-01  2.200000e+00
SN3d  TDY0  1  4.100000e-01  2.200000e+00
SN2d  TDY0  1  4.100000e-01  2.200000e+00
TDY0  SN1d  1  4.100000e-01  2.350000e+00
SP6a  TDY0  1  4.100000e-01  1.910000e+00
SP5a  TDY0  1  4.100000e-01  1.910000e+00
SP4a  TDY0  1  4.100000e-01  2.040000e+00
SP3a  TDY0  1  4.100000e-01  2.200000e+00
SP2a  TDY0  1  4.100000e-01  2.600000e+00
SP1a  TDY0  1  4.100000e-01  2.600000e+00
SN6a  TDY0  1  4.100000e-01  2.600000e+00
SN5a  TDY0  1  4.100000e-01  2.600000e+00
SN4a  TDY0  1  4.100000e-01  2.600000e+00
SN3a  TDY0  1  4.100000e-01  2.600000e+00
SN2a  TDY0  1  4.100000e-01  2.600000e+00
TDY0  SN1a  1  4.100000e-01  2.840000e+00
TDY0  SC6e  1  4.100000e-01  2.840000e+00
TDY0  SC5e  1  4.100000e-01  2.600000e+00
TDY0  SC4e  1  4.100000e-01  2.600000e+00
TDY0  SC3e  1  4.100000e-01  2.350000e+00
TDY0  SC2e  1  4.100000e-01  2.200000e+00
TDY0  SC1e  1  4.100000e-01  2.040000e+00
TDY0  SX4e  1  4.100000e-01  2.600000e+00
TDY0  SX3e  1  4.100000e-01  2.600000e+00
TDY0  SX2e  1  4.100000e-01  2.350000e+00
TDY0  SX1e  1  4.100000e-01  2.350000e+00
TDY0  SC6v  1  4.100000e-01  2.350000e+00
TDY0  SC5v  1  4.100000e-01  2.200000e+00
TDY0  SC4v  1  4.100000e-01  2.200000e+00
TDY0  SC3v  1  4.100000e-01  2.040000e+00
TDY0  SC2v  1  4.100000e-01  1.910000e+00
TDY0  SC1v  1  4.100000e-01  1.750000e+00
TDY0  SX4v  1  4.100000e-01  2.200000e+00
TDY0  SX3v  1  4.100000e-01  2.200000e+00
TDY0  SX2v  1  4.100000e-01  2.040000e+00
TDY0  SX1v  1  4.100000e-01  2.040000e+00
SP6q  TDY0  1  4.100000e-01  2.200000e+00
SP5q  TDY0  1  4.100000e-01  2.200000e+00
SP4q  TDY0  1  4.100000e-01  2.350000e+00
SP3q  TDY0  1  4.100000e-01  2.600000e+00
SP2q  TDY0  1  4.100000e-01  2.840000e+00
SP1q  TDY0  1  4.100000e-01  2.840000e+00
SN6q  TDY0  1  4.100000e-01  2.840000e+00
SN5q  TDY0  1  4.100000e-01  2.840000e+00
SN4q  TDY0  1  4.100000e-01  2.840000e+00
SN3q  TDY0  1  4.100000e-01  2.840000e+00
SN2q  TDY0  1  4.100000e-01  2.840000e+00
SN1q  TDY0  1  4.100000e-01  3.070000e+00
TDY0  SC6q  1  4.100000e-01  3.070000e+00
TDY0  SC5q  1  4.100000e-01  2.840000e+00
TDY0  SC4q  1  4.100000e-01  2.840000e+00
TDY0  SC3q  1  4.100000e-01  2.600000e+00
TDY0  SC2q  1  4.100000e-01  2.350000e+00
TDY0  SC1q  1  4.100000e-01  2.200000e+00
TDY0  SX4q  1  4.100000e-01  2.840000e+00
TDY0  SX3q  1  4.100000e-01  2.840000e+00
TDY0  SX2q  1  4.100000e-01  2.600000e+00
TDY0  SX1q  1  4.100000e-01  2.600000e+00
SP6h  TDY0  1  4.100000e-01  1.910000e+00
SP5h  TDY0  1  4.100000e-01  1.910000e+00
SP4h  TDY0  1  4.100000e-01  2.040000e+00
SP3h  TDY0  1  4.100000e-01  2.200000e+00
SP2h  TDY0  1  4.100000e-01  2.350000e+00
SP1h  TDY0  1  4.100000e-01  2.350000e+00
SN6h  TDY0  1  4.100000e-01  2.350000e+00
SN5h  TDY0  1  4.100000e-01  2.350000e+00
SN4h  TDY0  1  4.100000e-01  2.350000e+00
SN3h  TDY0  1  4.100000e-01  2.350000e+00
SN2h  TDY0  1  4.100000e-01  2.350000e+00
SN1h  TDY0  1  4.100000e-01  2.600000e+00
TDY0  SC6h  1  4.100000e-01  2.600000e+00
TDY0  SC5h  1  4.100000e-01  2.350000e+00
TDY0  SC4h  1  4.100000e-01  2.350000e+00
TDY0  SC3h  1  4.100000e-01  2.200000e+00
TDY0  SC2h  1  4.100000e-01  2.040000e+00
TDY0  SC1h  1  4.100000e-01  1.910000e+00
TDY0  SX4h  1  4.100000e-01  2.350000e+00
TDY0  SX3h  1  4.100000e-01  2.350000e+00
TDY0  SX2h  1  4.100000e-01  2.200000e+00
TDY0  SX1h  1  4.100000e-01  2.200000e+00
SP6r  TDY0  1  4.100000e-01  1.910000e+00
SP5r  TDY0  1  4.100000e-01  1.910000e+00
SP4r  TDY0  1  4.100000e-01  2.040000e+00
SP3r  TDY0  1  4.100000e-01  2.200000e+00
SP2r  TDY0  1  4.100000e-01  2.350000e+00
SP1r  TDY0  1  4.100000e-01  2.350000e+00
SN6r  TDY0  1  4.100000e-01  2.350000e+00
SN5r  TDY0  1  4.100000e-01  2.350000e+00
SN4r  TDY0  1  4.100000e-01  2.350000e+00
SN3r  TDY0  1  4.100000e-01  2.350000e+00
SN2r  TDY0  1  4.100000e-01  2.350000e+00
SN1r  TDY0  1  4.100000e-01  2.600000e+00
TDY0  SC6r  1  4.100000e-01  2.600000e+00
TDY0  SC5r  1  4.100000e-01  2.350000e+00
TDY0  SC4r  1  4.100000e-01  2.350000e+00
TDY0  SC3r  1  4.100000e-01  2.200000e+00
TDY0  SC2r  1  4.100000e-01  2.040000e+00
TDY0  SC1r  1  4.100000e-01  1.910000e+00
TDY0  SX4r  1  4.100000e-01  2.350000e+00
TDY0  SX3r  1  4.100000e-01  2.350000e+00
TDY0  SX2r  1  4.100000e-01  2.200000e+00
TDY0  SX1r  1  4.100000e-01  2.200000e+00
SP6dq  TDY0  1  4.100000e-01  2.200000e+00
SP5dq  TDY0  1  4.100000e-01  2.200000e+00
SP4dq  TDY0  1  4.100000e-01  2.350000e+00
SP3dq  TDY0  1  4.100000e-01  2.600000e+00
SP2dq  TDY0  1  4.100000e-01  2.600000e+00
SP1dq  TDY0  1  4.100000e-01  2.600000e+00
SN6dq  TDY0  1  4.100000e-01  2.600000e+00
SN5dq  TDY0  1  4.100000e-01  2.600000e+00
SN4dq  TDY0  1  4.100000e-01  2.600000e+00
SN3dq  TDY0  1  4.100000e-01  2.600000e+00
SN2dq  TDY0  1  4.100000e-01  2.600000e+00
SN2aq  TDY0  1  4.100000e-01  3.070000e+00
SN3aq  TDY0  1  4.100000e-01  3.070000e+00
SN4aq  TDY0  1  4.100000e-01  3.070000e+00
SN5aq  TDY0  1  4.100000e-01  3.070000e+00
SN6aq  TDY0  1  4.100000e-01  3.070000e+00
SP1aq  TDY0  1  4.100000e-01  3.070000e+00
SP2aq  TDY0  1  4.100000e-01  3.070000e+00
SP3aq  TDY0  1  4.100000e-01  2.600000e+00
SP4aq  TDY0  1  4.100000e-01  2.350000e+00
SP5aq  TDY0  1  4.100000e-01  2.200000e+00
SP6aq  TDY0  1  4.100000e-01  2.200000e+00
SP6dh  TDY0  1  4.100000e-01  1.910000e+00
SP5dh  TDY0  1  4.100000e-01  1.910000e+00
SP4dh  TDY0  1  4.100000e-01  2.040000e+00
SP3dh  TDY0  1  4.100000e-01  2.200000e+00
SP2dh  TDY0  1  4.100000e-01  2.200000e+00
SP1dh  TDY0  1  4.100000e-01  2.200000e+00
SN6dh  TDY0  1  4.100000e-01  2.200000e+00
SN5dh  TDY0  1  4.100000e-01  2.200000e+00
SN4dh  TDY0  1  4.100000e-01  2.200000e+00
SN3dh  TDY0  1  4.100000e-01  2.200000e+00
SN2dh  TDY0  1  4.100000e-01  2.200000e+00
SN2ah  TDY0  1  4.100000e-01  2.600000e+00
SN3ah  TDY0  1  4.100000e-01  2.600000e+00
SN4ah  TDY0  1  4.100000e-01  2.600000e+00
SN5ah  TDY0  1  4.100000e-01  2.600000e+00
SN6ah  TDY0  1  4.100000e-01  2.600000e+00
SP1ah  TDY0  1  4.100000e-01  2.600000e+00
SP2ah  TDY0  1  4.100000e-01  2.600000e+00
SP3ah  TDY0  1  4.100000e-01  2.200000e+00
SP4ah  TDY0  1  4.100000e-01  2.040000e+00
SP5ah  TDY0  1  4.100000e-01  1.910000e+00
SP6ah  TDY0  1  4.100000e-01  1.910000e+00
SP6dr  TDY0  1  4.100000e-01  1.910000e+00
SP5dr  TDY0  1  4.100000e-01  1.910000e+00
SP4dr  TDY0  1  4.100000e-01  2.040000e+00
SP3dr  TDY0  1  4.100000e-01  2.200000e+00
SP2dr  TDY0  1  4.100000e-01  2.200000e+00
SP1dr  TDY0  1  4.100000e-01  2.200000e+00
SN6dr  TDY0  1  4.100000e-01  2.200000e+00
SN5dr  TDY0  1  4.100000e-01  2.200000e+00
SN4dr  TDY0  1  4.100000e-01  2.200000e+00
SN3dr  TDY0  1  4.100000e-01  2.200000e+00
SN2dr  TDY0  1  4.100000e-01  2.200000e+00
SN2ar  TDY0  1  4.100000e-01  2.600000e+00
SN3ar  TDY0  1  4.100000e-01  2.600000e+00
SN4ar  TDY0  1  4.100000e-01  2.600000e+00
SN5ar  TDY0  1  4.100000e-01  2.600000e+00
SN6ar  TDY0  1  4.100000e-01  2.600000e+00
SP1ar  TDY0  1  4.100000e-01  2.600000e+00
SP2ar  TDY0  1  4.100000e-01  2.600000e+00
SP3ar  TDY0  1  4.100000e-01  2.200000e+00
SP4ar  TDY0  1  4.100000e-01  2.040000e+00
SP5ar  TDY0  1  4.100000e-01  1.910000e+00
SP6ar  TDY0  1  4.100000e-01  1.910000e+00
TDY0  TN1dq  1  3.650000e-01  2.340000e+00
TDY0  TX1eq  1  3.650000e-01  2.340000e+00
TDY0  TX2eq  1  3.650000e-01  2.340000e+00
TDY0  TX3eq  1  3.650000e-01  2.570000e+00
TDY0  TX4eq  1  3.650000e-01  2.570000e+00
TDY0  TC1eq  1  3.650000e-01  1.910000e+00
TDY0  TC2eq  1  3.650000e-01  2.110000e+00
TDY0  TC3eq  1  3.650000e-01  2.340000e+00
TDY0  TC4eq  1  3.650000e-01  2.570000e+00
TDY0  TC5eq  1  3.650000e-01  2.570000e+00
TDY0  TC6eq  1  3.650000e-01  2.830000e+00
TDY0  TX1vq  1  3.650000e-01  1.910000e+00
TDY0  TX2vq  1  3.650000e-01  1.910000e+00
TDY0  TX3vq  1  3.650000e-01  2.110000e+00
TDY0  TX4vq  1  3.650000e-01  2.110000e+00
TDY0  TC1vq  1  3.660000e-01  1.600000e+00
TDY0  TC2vq  1  3.650000e-01  1.750000e+00
TDY0  TC3vq  1  3.650000e-01  1.910000e+00
TDY0  TC4vq  1  3.650000e-01  2.110000e+00
TDY0  TC5vq  1  3.650000e-01  2.110000e+00
TDY0  TC6vq  1  3.650000e-01  2.340000e+00
TDY0  TN1aq  1  3.650000e-01  2.830000e+00
TDY0  TN1dh  1  3.650000e-01  1.910000e+00
TDY0  TX1eh  1  3.650000e-01  1.910000e+00
TDY0  TX2eh  1  3.650000e-01  1.910000e+00
TDY0  TX3eh  1  3.650000e-01  2.110000e+00
TDY0  TX4eh  1  3.650000e-01  2.110000e+00
TDY0  TC1eh  1  3.660000e-01  1.600000e+00
TDY0  TC2eh  1  3.650000e-01  1.750000e+00
TDY0  TC3eh  1  3.650000e-01  1.910000e+00
TDY0  TC4eh  1  3.650000e-01  2.110000e+00
TDY0  TC5eh  1  3.650000e-01  2.110000e+00
TDY0  TC6eh  1  3.650000e-01  2.340000e+00
TDY0  TX1vh  1  3.660000e-01  1.600000e+00
TDY0  TX2vh  1  3.660000e-01  1.600000e+00
TDY0  TX3vh  1  3.650000e-01  1.750000e+00
TDY0  TX4vh  1  3.650000e-01  1.750000e+00
TDY0  TC1vh  1  3.940000e-01  1.290000e+00
TDY0  TC2vh  1  3.780000e-01  1.450000e+00
TDY0  TC3vh  1  3.660000e-01  1.600000e+00
TDY0  TC4vh  1  3.650000e-01  1.750000e+00
TDY0  TC5vh  1  3.650000e-01  1.750000e+00
TDY0  TC6vh  1  3.650000e-01  1.910000e+00
TDY0  TN1ah  1  3.650000e-01  2.340000e+00
TDY0  TN1dr  1  3.650000e-01  1.910000e+00
TDY0  TX1er  1  3.650000e-01  1.910000e+00
TDY0  TX2er  1  3.650000e-01  1.910000e+00
TDY0  TX3er  1  3.650000e-01  2.110000e+00
TDY0  TX4er  1  3.650000e-01  2.110000e+00
TDY0  TC1er  1  3.660000e-01  1.600000e+00
TDY0  TC2er  1  3.650000e-01  1.750000e+00
TDY0  TC3er  1  3.650000e-01  1.910000e+00
TDY0  TC4er  1  3.650000e-01  2.110000e+00
TDY0  TC5er  1  3.650000e-01  2.110000e+00
TDY0  TC6er  1  3.650000e-01  2.340000e+00
TDY0  TX1vr  1  3.660000e-01  1.600000e+00
TDY0  TX2vr  1  3.660000e-01  1.600000e+00
TDY0  TX3vr  1  3.650000e-01  1.750000e+00
TDY0  TX4vr  1  3.650000e-01  1.750000e+00
TDY0  TC1vr  1  3.940000e-01  1.290000e+00
TDY0  TC2vr  1  3.780000e-01  1.450000e+00
TDY0  TC3vr  1  3.660000e-01  1.600000e+00
TDY0  TC4vr  1  3.650000e-01  1.750000e+00
TDY0  TC5vr  1  3.650000e-01  1.750000e+00
TDY0  TC6vr  1  3.650000e-01  1.910000e+00
TDY0  TN1ar  1  3.650000e-01  2.340000e+00
TDY0  TN1d  1  3.650000e-01  1.910000e+00
TDY0  TN1a  1  3.650000e-01  2.340000e+00
TDY0  TC6e  1  3.650000e-01  2.340000e+00
TDY0  TC5e  1  3.650000e-01  2.110000e+00
TDY0  TC4e  1  3.650000e-01  2.110000e+00
TDY0  TC3e  1  3.650000e-01  1.910000e+00
TDY0  TC2e  1  3.650000e-01  1.750000e+00
TDY0  TC1e  1  3.660000e-01  1.600000e+00
TDY0  TX4e  1  3.650000e-01  2.110000e+00
TDY0  TX3e  1  3.650000e-01  2.110000e+00
TDY0  TX2e  1  3.650000e-01  1.910000e+00
TDY0  TX1e  1  3.650000e-01  1.910000e+00
TDY0  TC6v  1  3.650000e-01  1.910000e+00
TDY0  TC5v  1  3.650000e-01  1.750000e+00
TDY0  TC4v  1  3.650000e-01  1.750000e+00
TDY0  TC3v  1  3.660000e-01  1.600000e+00
TDY0  TC2v  1  3.780000e-01  1.450000e+00
TDY0  TC1v  1  3.940000e-01  1.290000e+00
TDY0  TX4v  1  3.650000e-01  1.750000e+00
TDY0  TX3v  1  3.650000e-01  1.750000e+00
TDY0  TX2v  1  3.660000e-01  1.600000e+00
TDY0  TX1v  1  3.660000e-01  1.600000e+00
TDY0  TC6q  1  3.650000e-01  2.570000e+00
TDY0  TC5q  1  3.650000e-01  2.340000e+00
TDY0  TC4q  1  3.650000e-01  2.340000e+00
TDY0  TC3q  1  3.650000e-01  2.110000e+00
TDY0  TC2q  1  3.650000e-01  1.910000e+00
TDY0  TC1q  1  3.650000e-01  1.750000e+00
TDY0  TX4q  1  3.650000e-01  2.340000e+00
TDY0  TX3q  1  3.650000e-01  2.340000e+00
TDY0  TX2q  1  3.650000e-01  2.110000e+00
TDY0  TX1q  1  3.650000e-01  2.110000e+00
TDY0  TC6h  1  3.650000e-01  2.110000e+00
TDY0  TC5h  1  3.650000e-01  1.910000e+00
TDY0  TC4h  1  3.650000e-01  1.910000e+00
TDY0  TC3h  1  3.650000e-01  1.750000e+00
TDY0  TC2h  1  3.660000e-01  1.600000e+00
TDY0  TC1h  1  3.780000e-01  1.450000e+00
TDY0  TX4h  1  3.650000e-01  1.910000e+00
TDY0  TX3h  1  3.650000e-01  1.910000e+00
TDY0  TX2h  1  3.650000e-01  1.750000e+00
TDY0  TX1h  1  3.650000e-01  1.750000e+00
TDY0  TC6r  1  3.650000e-01  2.110000e+00
TDY0  TC5r  1  3.650000e-01  1.910000e+00
TDY0  TC4r  1  3.650000e-01  1.910000e+00
TDY0  TC3r  1  3.650000e-01  1.750000e+00
TDY0  TC2r  1  3.660000e-01  1.600000e+00
TDY0  TC1r  1  3.780000e-01  1.450000e+00
TDY0  TX4r  1  3.650000e-01  1.910000e+00
TDY0  TX3r  1  3.650000e-01  1.910000e+00
TDY0  TX2r  1  3.650000e-01  1.750000e+00
TDY0  TX1r  1  3.650000e-01  1.750000e+00
TP6d  TDY0  1  3.780000e-01  1.450000e+00
TP5d  TDY0  1  3.780000e-01  1.450000e+00
TP4d  TDY0  1  3.660000e-01  1.600000e+00
TP3d  TDY0  1  3.650000e-01  1.750000e+00
TP2d  TDY0  1  3.650000e-01  1.750000e+00
TP1d  TDY0  1  3.650000e-01  1.750000e+00
TN6d  TDY0  1  3.650000e-01  1.750000e+00
TN5d  TDY0  1  3.650000e-01  1.750000e+00
TN4d  TDY0  1  3.650000e-01  1.750000e+00
TN3d  TDY0  1  3.650000e-01  1.750000e+00
TN2d  TDY0  1  3.650000e-01  1.750000e+00
TP6a  TDY0  1  3.780000e-01  1.450000e+00
TP5a  TDY0  1  3.780000e-01  1.450000e+00
TP4a  TDY0  1  3.660000e-01  1.600000e+00
TP3a  TDY0  1  3.650000e-01  1.750000e+00
TP2a  TDY0  1  3.650000e-01  2.110000e+00
TP1a  TDY0  1  3.650000e-01  2.110000e+00
TN6a  TDY0  1  3.650000e-01  2.110000e+00
TN5a  TDY0  1  3.650000e-01  2.110000e+00
TN4a  TDY0  1  3.650000e-01  2.110000e+00
TN3a  TDY0  1  3.650000e-01  2.110000e+00
TN2a  TDY0  1  3.650000e-01  2.110000e+00
TP6q  TDY0  1  3.650000e-01  1.750000e+00
TP5q  TDY0  1  3.650000e-01  1.750000e+00
TP4q  TDY0  1  3.650000e-01  1.910000e+00
TP3q  TDY0  1  3.650000e-01  2.110000e+00
TP2q  TDY0  1  3.650000e-01  2.340000e+00
TP1q  TDY0  1  3.650000e-01  2.340000e+00
TN6q  TDY0  1  3.650000e-01  2.340000e+00
TN5q  TDY0  1  3.650000e-01  2.340000e+00
TN4q  TDY0  1  3.650000e-01  2.340000e+00
TN3q  TDY0  1  3.650000e-01  2.340000e+00
TN2q  TDY0  1  3.650000e-01  2.340000e+00
TN1q  TDY0  1  3.650000e-01  2.570000e+00
TP6h  TDY0  1  3.780000e-01  1.450000e+00
TP5h  TDY0  1  3.780000e-01  1.450000e+00
TP4h  TDY0  1  3.660000e-01  1.600000e+00
TP3h  TDY0  1  3.650000e-01  1.750000e+00
TP2h  TDY0  1  3.650000e-01  1.910000e+00
TP1h  TDY0  1  3.650000e-01  1.910000e+00
TN6h  TDY0  1  3.650000e-01  1.910000e+00
TN5h  TDY0  1  3.650000e-01  1.910000e+00
TN4h  TDY0  1  3.650000e-01  1.910000e+00
TN3h  TDY0  1  3.650000e-01  1.910000e+00
TN2h  TDY0  1  3.650000e-01  1.910000e+00
TN1h  TDY0  1  3.650000e-01  2.110000e+00
TP6r  TDY0  1  3.780000e-01  1.450000e+00
TP5r  TDY0  1  3.780000e-01  1.450000e+00
TP4r  TDY0  1  3.660000e-01  1.600000e+00
TP3r  TDY0  1  3.650000e-01  1.750000e+00
TP2r  TDY0  1  3.650000e-01  1.910000e+00
TP1r  TDY0  1  3.650000e-01  1.910000e+00
TN6r  TDY0  1  3.650000e-01  1.910000e+00
TN5r  TDY0  1  3.650000e-01  1.910000e+00
TN4r  TDY0  1  3.650000e-01  1.910000e+00
TN3r  TDY0  1  3.650000e-01  1.910000e+00
TN2r  TDY0  1  3.650000e-01  1.910000e+00
TN1r  TDY0  1  3.650000e-01  2.110000e+00
TP6dq  TDY0  1  3.650000e-01  1.750000e+00
TP5dq  TDY0  1  3.650000e-01  1.750000e+00
TP4dq  TDY0  1  3.650000e-01  1.910000e+00
TP3dq  TDY0  1  3.650000e-01  2.110000e+00
TP2dq  TDY0  1  3.650000e-01  2.110000e+00
TP1dq  TDY0  1  3.650000e-01  2.110000e+00
TN6dq  TDY0  1  3.650000e-01  2.110000e+00
TN5dq  TDY0  1  3.650000e-01  2.110000e+00
TN4dq  TDY0  1  3.650000e-01  2.110000e+00
TN3dq  TDY0  1  3.650000e-01  2.110000e+00
TN2dq  TDY0  1  3.650000e-01  2.110000e+00
TN2aq  TDY0  1  3.650000e-01  2.570000e+00
TN3aq  TDY0  1  3.650000e-01  2.570000e+00
TN4aq  TDY0  1  3.650000e-01  2.570000e+00
TN5aq  TDY0  1  3.650000e-01  2.570000e+00
TN6aq  TDY0  1  3.650000e-01  2.570000e+00
TP1aq  TDY0  1  3.650000e-01  2.570000e+00
TP2aq  TDY0  1  3.650000e-01  2.570000e+00
TP3aq  TDY0  1  3.650000e-01  2.110000e+00
TP4aq  TDY0  1  3.650000e-01  1.910000e+00
TP5aq  TDY0  1  3.650000e-01  1.750000e+00
TP6aq  TDY0  1  3.650000e-01  1.750000e+00
TP6dh  TDY0  1  3.780000e-01  1.450000e+00
TP5dh  TDY0  1  3.780000e-01  1.450000e+00
TP4dh  TDY0  1  3.660000e-01  1.600000e+00
TP3dh  TDY0  1  3.650000e-01  1.750000e+00
TP2dh  TDY0  1  3.650000e-01  1.750000e+00
TP1dh  TDY0  1  3.650000e-01  1.750000e+00
TN6dh  TDY0  1  3.650000e-01  1.750000e+00
TN5dh  TDY0  1  3.650000e-01  1.750000e+00
TN4dh  TDY0  1  3.650000e-01  1.750000e+00
TN3dh  TDY0  1  3.650000e-01  1.750000e+00
TN2dh  TDY0  1  3.650000e-01  1.750000e+00
TN2ah  TDY0  1  3.650000e-01  2.110000e+00
TN3ah  TDY0  1  3.650000e-01  2.110000e+00
TN4ah  TDY0  1  3.650000e-01  2.110000e+00
TN5ah  TDY0  1  3.650000e-01  2.110000e+00
TN6ah  TDY0  1  3.650000e-01  2.110000e+00
TP1ah  TDY0  1  3.650000e-01  2.110000e+00
TP2ah  TDY0  1  3.650000e-01  2.110000e+00
TP3ah  TDY0  1  3.650000e-01  1.750000e+00
TP4ah  TDY0  1  3.660000e-01  1.600000e+00
TP5ah  TDY0  1  3.780000e-01  1.450000e+00
TP6ah  TDY0  1  3.780000e-01  1.450000e+00
TP6dr  TDY0  1  3.780000e-01  1.450000e+00
TP5dr  TDY0  1  3.780000e-01  1.450000e+00
TP4dr  TDY0  1  3.660000e-01  1.600000e+00
TP3dr  TDY0  1  3.650000e-01  1.750000e+00
TP2dr  TDY0  1  3.650000e-01  1.750000e+00
TP1dr  TDY0  1  3.650000e-01  1.750000e+00
TN6dr  TDY0  1  3.650000e-01  1.750000e+00
TN5dr  TDY0  1  3.650000e-01  1.750000e+00
TN4dr  TDY0  1  3.650000e-01  1.750000e+00
TN3dr  TDY0  1  3.650000e-01  1.750000e+00
TN2dr  TDY0  1  3.650000e-01  1.750000e+00
TN2ar  TDY0  1  3.650000e-01  2.110000e+00
TN3ar  TDY0  1  3.650000e-01  2.110000e+00
TN4ar  TDY0  1  3.650000e-01  2.110000e+00
TN5ar  TDY0  1  3.650000e-01  2.110000e+00
TN6ar  TDY0  1  3.650000e-01  2.110000e+00
TP1ar  TDY0  1  3.650000e-01  2.110000e+00
TP2ar  TDY0  1  3.650000e-01  2.110000e+00
TP3ar  TDY0  1  3.650000e-01  1.750000e+00
TP4ar  TDY0  1  3.660000e-01  1.600000e+00
TP5ar  TDY0  1  3.780000e-01  1.450000e+00
TP6ar  TDY0  1  3.780000e-01  1.450000e+00
P6d  TDY0  1  4.300000e-01  2.320000e+00
P5d  TDY0  1  4.300000e-01  2.320000e+00
P4d  TDY0  1  4.300000e-01  2.530000e+00
P3d  TDY0  1  4.300000e-01  2.770000e+00
P2d  TDY0  1  4.300000e-01  2.770000e+00
P1d  TDY0  1  4.300000e-01  2.770000e+00
N6d  TDY0  1  4.300000e-01  2.770000e+00
N5d  TDY0  1  4.300000e-01  2.770000e+00
N4d  TDY0  1  4.300000e-01  2.770000e+00
N3d  TDY0  1  4.300000e-01  2.770000e+00
N2d  TDY0  1  4.300000e-01  2.770000e+00
N1d  TDY0  1  4.300000e-01  2.920000e+00
TDY0  N1dq  1  4.300000e-01  3.160000e+00
TDY0  N1dh  1  4.300000e-01  2.920000e+00
TDY0  N1dr  1  4.300000e-01  2.920000e+00
P6dq  TDY0  1  4.300000e-01  2.770000e+00
P5dq  TDY0  1  4.300000e-01  2.770000e+00
P4dq  TDY0  1  4.300000e-01  2.920000e+00
P3dq  TDY0  1  4.300000e-01  2.930000e+00
P2dq  TDY0  1  4.300000e-01  2.930000e+00
P1dq  TDY0  1  4.300000e-01  2.930000e+00
N6dq  TDY0  1  4.300000e-01  2.930000e+00
N5dq  TDY0  1  4.300000e-01  2.930000e+00
N4dq  TDY0  1  4.300000e-01  2.930000e+00
N3dq  TDY0  1  4.300000e-01  2.930000e+00
N2dq  TDY0  1  4.300000e-01  2.930000e+00
P6dh  TDY0  1  4.300000e-01  2.320000e+00
P5dh  TDY0  1  4.300000e-01  2.320000e+00
P4dh  TDY0  1  4.300000e-01  2.530000e+00
P3dh  TDY0  1  4.300000e-01  2.770000e+00
P2dh  TDY0  1  4.300000e-01  2.770000e+00
P1dh  TDY0  1  4.300000e-01  2.770000e+00
N6dh  TDY0  1  4.300000e-01  2.770000e+00
N5dh  TDY0  1  4.300000e-01  2.770000e+00
N4dh  TDY0  1  4.300000e-01  2.770000e+00
N3dh  TDY0  1  4.300000e-01  2.770000e+00
N2dh  TDY0  1  4.300000e-01  2.770000e+00
P6dr  TDY0  1  4.300000e-01  2.320000e+00
P5dr  TDY0  1  4.300000e-01  2.320000e+00
P4dr  TDY0  1  4.300000e-01  2.530000e+00
P3dr  TDY0  1  4.300000e-01  2.770000e+00
P2dr  TDY0  1  4.300000e-01  2.770000e+00
P1dr  TDY0  1  4.300000e-01  2.770000e+00
N6dr  TDY0  1  4.300000e-01  2.770000e+00
N5dr  TDY0  1  4.300000e-01  2.770000e+00
N4dr  TDY0  1  4.300000e-01  2.770000e+00
N3dr  TDY0  1  4.300000e-01  2.770000e+00
N2dr  TDY0  1  4.300000e-01  2.770000e+00
TDY0  N1a  1  4.300000e-01  3.160000e+00
TDY0  N1aq  1  4.300000e-01  3.590000e+00
TDY0  N1ah  1  4.300000e-01  3.160000e+00
TDY0  N1ar  1  4.300000e-01  3.160000e+00
P6a  TDY0  1  4.300000e-01  2.320000e+00
P5a  TDY0  1  4.300000e-01  2.320000e+00
P4a  TDY0  1  4.300000e-01  2.530000e+00
P3a  TDY0  1  4.300000e-01  2.770000e+00
P2a  TDY0  1  4.300000e-01  2.930000e+00
P1a  TDY0  1  4.300000e-01  2.930000e+00
N6a  TDY0  1  4.300000e-01  2.930000e+00
N5a  TDY0  1  4.300000e-01  2.930000e+00
N4a  TDY0  1  4.300000e-01  2.930000e+00
N3a  TDY0  1  4.300000e-01  2.930000e+00
N2a  TDY0  1  4.300000e-01  2.930000e+00
N2aq  TDY0  1  4.300000e-01  3.380000e+00
N3aq  TDY0  1  4.300000e-01  3.380000e+00
N4aq  TDY0  1  4.300000e-01  3.380000e+00
N5aq  TDY0  1  4.300000e-01  3.380000e+00
N6aq  TDY0  1  4.300000e-01  3.380000e+00
P1aq  TDY0  1  4.300000e-01  3.380000e+00
P2aq  TDY0  1  4.300000e-01  3.380000e+00
P3aq  TDY0  1  4.300000e-01  2.930000e+00
P4aq  TDY0  1  4.300000e-01  2.920000e+00
P5aq  TDY0  1  4.300000e-01  2.770000e+00
P6aq  TDY0  1  4.300000e-01  2.770000e+00
N2ah  TDY0  1  4.300000e-01  2.930000e+00
N3ah  TDY0  1  4.300000e-01  2.930000e+00
N4ah  TDY0  1  4.300000e-01  2.930000e+00
N5ah  TDY0  1  4.300000e-01  2.930000e+00
N6ah  TDY0  1  4.300000e-01  2.930000e+00
P1ah  TDY0  1  4.300000e-01  2.930000e+00
P2ah  TDY0  1  4.300000e-01  2.930000e+00
P3ah  TDY0  1  4.300000e-01  2.770000e+00
P4ah  TDY0  1  4.300000e-01  2.530000e+00
P5ah  TDY0  1  4.300000e-01  2.320000e+00
P6ah  TDY0  1  4.300000e-01  2.320000e+00
N2ar  TDY0  1  4.300000e-01  2.930000e+00
N3ar  TDY0  1  4.300000e-01  2.930000e+00
N4ar  TDY0  1  4.300000e-01  2.930000e+00
N5ar  TDY0  1  4.300000e-01  2.930000e+00
N6ar  TDY0  1  4.300000e-01  2.930000e+00
P1ar  TDY0  1  4.300000e-01  2.930000e+00
P2ar  TDY0  1  4.300000e-01  2.930000e+00
P3ar  TDY0  1  4.300000e-01  2.770000e+00
P4ar  TDY0  1  4.300000e-01  2.530000e+00
P5ar  TDY0  1  4.300000e-01  2.320000e+00
P6ar  TDY0  1  4.300000e-01  2.320000e+00
TDY0  C6e  1  4.300000e-01  3.380000e+00
TDY0  C5e  1  4.300000e-01  3.160000e+00
TDY0  C4e  1  4.300000e-01  3.160000e+00
TDY0  C3e  1  4.300000e-01  2.920000e+00
TDY0  C2e  1  4.300000e-01  2.770000e+00
TDY0  C1e  1  4.300000e-01  2.530000e+00
TDY0  X4e  1  4.300000e-01  3.160000e+00
TDY0  X3e  1  4.300000e-01  3.160000e+00
TDY0  X2e  1  4.300000e-01  2.920000e+00
TDY0  X1e  1  4.300000e-01  2.920000e+00
TDY0  X1eq  1  4.300000e-01  3.380000e+00
TDY0  X2eq  1  4.300000e-01  3.380000e+00
TDY0  X3eq  1  4.300000e-01  3.590000e+00
TDY0  X4eq  1  4.300000e-01  3.590000e+00
TDY0  C1eq  1  4.300000e-01  2.920000e+00
TDY0  C2eq  1  4.300000e-01  3.160000e+00
TDY0  C3eq  1  4.300000e-01  3.380000e+00
TDY0  C4eq  1  4.300000e-01  3.590000e+00
TDY0  C5eq  1  4.300000e-01  3.590000e+00
TDY0  C6eq  1  4.300000e-01  3.770000e+00
TDY0  X1eh  1  4.300000e-01  2.920000e+00
TDY0  X2eh  1  4.300000e-01  2.920000e+00
TDY0  X3eh  1  4.300000e-01  3.160000e+00
TDY0  X4eh  1  4.300000e-01  3.160000e+00
TDY0  C1eh  1  4.300000e-01  2.530000e+00
TDY0  C2eh  1  4.300000e-01  2.770000e+00
TDY0  C3eh  1  4.300000e-01  2.920000e+00
TDY0  C4eh  1  4.300000e-01  3.160000e+00
TDY0  C5eh  1  4.300000e-01  3.160000e+00
TDY0  C6eh  1  4.300000e-01  3.380000e+00
TDY0  X1er  1  4.300000e-01  2.920000e+00
TDY0  X2er  1  4.300000e-01  2.920000e+00
TDY0  X3er  1  4.300000e-01  3.160000e+00
TDY0  X4er  1  4.300000e-01  3.160000e+00
TDY0  C1er  1  4.300000e-01  2.530000e+00
TDY0  C2er  1  4.300000e-01  2.770000e+00
TDY0  C3er  1  4.300000e-01  2.920000e+00
TDY0  C4er  1  4.300000e-01  3.160000e+00
TDY0  C5er  1  4.300000e-01  3.160000e+00
TDY0  C6er  1  4.300000e-01  3.380000e+00
TDY0  C6v  1  4.300000e-01  2.920000e+00
TDY0  C5v  1  4.300000e-01  2.530000e+00
TDY0  C4v  1  4.300000e-01  2.530000e+00
TDY0  C3v  1  4.300000e-01  2.320000e+00
TDY0  C2v  1  4.300000e-01  2.160000e+00
TDY0  C1v  1  4.300000e-01  1.930000e+00
TDY0  X4v  1  4.300000e-01  2.530000e+00
TDY0  X3v  1  4.300000e-01  2.530000e+00
TDY0  X2v  1  4.300000e-01  2.320000e+00
TDY0  X1v  1  4.300000e-01  2.320000e+00
TDY0  X1vq  1  4.300000e-01  2.920000e+00
TDY0  X2vq  1  4.300000e-01  2.920000e+00
TDY0  X3vq  1  4.300000e-01  2.930000e+00
TDY0  X4vq  1  4.300000e-01  2.930000e+00
TDY0  C1vq  1  4.300000e-01  2.320000e+00
TDY0  C2vq  1  4.300000e-01  2.530000e+00
TDY0  C3vq  1  4.300000e-01  2.920000e+00
TDY0  C4vq  1  4.300000e-01  2.930000e+00
TDY0  C5vq  1  4.300000e-01  2.930000e+00
TDY0  C6vq  1  4.300000e-01  3.160000e+00
TDY0  X1vh  1  4.300000e-01  2.320000e+00
TDY0  X2vh  1  4.300000e-01  2.320000e+00
TDY0  X3vh  1  4.300000e-01  2.530000e+00
TDY0  X4vh  1  4.300000e-01  2.530000e+00
TDY0  C1vh  1  4.300000e-01  1.930000e+00
TDY0  C2vh  1  4.300000e-01  2.160000e+00
TDY0  C3vh  1  4.300000e-01  2.320000e+00
TDY0  C4vh  1  4.300000e-01  2.530000e+00
TDY0  C5vh  1  4.300000e-01  2.530000e+00
TDY0  C6vh  1  4.300000e-01  2.920000e+00
TDY0  X1vr  1  4.300000e-01  2.320000e+00
TDY0  X2vr  1  4.300000e-01  2.320000e+00
TDY0  X3vr  1  4.300000e-01  2.530000e+00
TDY0  X4vr  1  4.300000e-01  2.530000e+00
TDY0  C1vr  1  4.300000e-01  1.930000e+00
TDY0  C2vr  1  4.300000e-01  2.160000e+00
TDY0  C3vr  1  4.300000e-01  2.320000e+00
TDY0  C4vr  1  4.300000e-01  2.530000e+00
TDY0  C5vr  1  4.300000e-01  2.530000e+00
TDY0  C6vr  1  4.300000e-01  2.920000e+00
P6q  TDY0  1  4.300000e-01  2.770000e+00
P5q  TDY0  1  4.300000e-01  2.770000e+00
P4q  TDY0  1  4.300000e-01  2.920000e+00
P3q  TDY0  1  4.300000e-01  3.160000e+00
P2q  TDY0  1  4.300000e-01  3.380000e+00
P1q  TDY0  1  4.300000e-01  3.380000e+00
N6q  TDY0  1  4.300000e-01  3.380000e+00
N5q  TDY0  1  4.300000e-01  3.380000e+00
N4q  TDY0  1  4.300000e-01  3.380000e+00
N3q  TDY0  1  4.300000e-01  3.380000e+00
N2q  TDY0  1  4.300000e-01  3.380000e+00
N1q  TDY0  1  4.300000e-01  3.590000e+00
P6h  TDY0  1  4.300000e-01  2.320000e+00
P5h  TDY0  1  4.300000e-01  2.320000e+00
P4h  TDY0  1  4.300000e-01  2.530000e+00
P3h  TDY0  1  4.300000e-01  2.770000e+00
P2h  TDY0  1  4.300000e-01  2.920000e+00
P1h  TDY0  1  4.300000e-01  2.920000e+00
N6h  TDY0  1  4.300000e-01  2.920000e+00
N5h  TDY0  1  4.300000e-01  2.920000e+00
N4h  TDY0  1  4.300000e-01  2.920000e+00
N3h  TDY0  1  4.300000e-01  2.920000e+00
N2h  TDY0  1  4.300000e-01  2.920000e+00
N1h  TDY0  1  4.300000e-01  3.160000e+00
P6r  TDY0  1  4.300000e-01  2.320000e+00
P5r  TDY0  1  4.300000e-01  2.320000e+00
P4r  TDY0  1  4.300000e-01  2.530000e+00
P3r  TDY0  1  4.300000e-01  2.770000e+00
P2r  TDY0  1  4.300000e-01  2.920000e+00
P1r  TDY0  1  4.300000e-01  2.920000e+00
N6r  TDY0  1  4.300000e-01  2.920000e+00
N5r  TDY0  1  4.300000e-01  2.920000e+00
N4r  TDY0  1  4.300000e-01  2.920000e+00
N3r  TDY0  1  4.300000e-01  2.920000e+00
N2r  TDY0  1  4.300000e-01  2.920000e+00
N1r  TDY0  1  4.300000e-01  3.160000e+00
TDY0  C6q  1  4.300000e-01  3.590000e+00
TDY0  C5q  1  4.300000e-01  3.380000e+00
TDY0  C4q  1  4.300000e-01  3.380000e+00
TDY0  C3q  1  4.300000e-01  3.160000e+00
TDY0  C2q  1  4.300000e-01  2.920000e+00
TDY0  C1q  1  4.300000e-01  2.770000e+00
TDY0  X4q  1  4.300000e-01  3.380000e+00
TDY0  X3q  1  4.300000e-01  3.380000e+00
TDY0  X2q  1  4.300000e-01  3.160000e+00
TDY0  X1q  1  4.300000e-01  3.160000e+00
TDY0  C6h  1  4.300000e-01  3.160000e+00
TDY0  C5h  1  4.300000e-01  2.920000e+00
TDY0  C4h  1  4.300000e-01  2.920000e+00
TDY0  C3h  1  4.300000e-01  2.770000e+00
TDY0  C2h  1  4.300000e-01  2.530000e+00
TDY0  C1h  1  4.300000e-01  2.320000e+00
TDY0  X4h  1  4.300000e-01  2.920000e+00
TDY0  X3h  1  4.300000e-01  2.920000e+00
TDY0  X2h  1  4.300000e-01  2.770000e+00
TDY0  X1h  1  4.300000e-01  2.770000e+00
TDY0  C6r  1  4.300000e-01  3.160000e+00
TDY0  C5r  1  4.300000e-01  2.920000e+00
TDY0  C4r  1  4.300000e-01  2.920000e+00
TDY0  C3r  1  4.300000e-01  2.770000e+00
TDY0  C2r  1  4.300000e-01  2.530000e+00
TDY0  C1r  1  4.300000e-01  2.320000e+00
TDY0  X4r  1  4.300000e-01  2.920000e+00
TDY0  X3r  1  4.300000e-01  2.920000e+00
TDY0  X2r  1  4.300000e-01  2.770000e+00
TDY0  X1r  1  4.300000e-01  2.770000e+00
W  TDY0  1  4.250000e-01  2.260000e+00
SW  TDY0  1  4.050000e-01  1.680000e+00
TW  TDY0  1  3.780000e-01  1.610000e+00
TDY0  D  1  4.300000e-01  3.388000e+00
TDY0  SD  1  4.100000e-01  7.938000e+00
TDY0  TD  1  3.650000e-01  1.116200e+01
TDY0  Q5  1  4.300000e-01  3.959000e+00
TDY0  SQ5  1  4.100000e-01  4.943000e+00
TDY0  TQ5  1  3.650000e-01  6.486000e+00
TDY0  Q5p  1  4.300000e-01  3.529000e+00
TDY0  SQ5p  1  4.100000e-01  4.713000e+00
TDY0  TQ5p  1  3.650000e-01  6.256000e+00
TDY0  Q5n  1  4.300000e-01  4.139000e+00
TDY0  SQ5n  1  4.100000e-01  5.423000e+00
TDY0  TQ5n  1  3.650000e-01  7.016000e+00
TDY0  Q4  1  4.300000e-01  3.970000e+00
TDY0  SQ4  1  4.100000e-01  5.002000e+00
TDY0  TQ4  1  3.650000e-01  6.609000e+00
TDY0  Q4p  1  4.300000e-01  3.540000e+00
TDY0  SQ4p  1  4.100000e-01  4.772000e+00
TDY0  TQ4p  1  3.650000e-01  6.379000e+00
TDY0  Q4n  1  4.300000e-01  4.150000e+00
TDY0  SQ4n  1  4.100000e-01  5.482000e+00
TDY0  TQ4n  1  3.650000e-01  7.139000e+00
TDY0  Q3  1  4.300000e-01  3.991000e+00
TDY0  SQ3  1  4.100000e-01  5.110000e+00
TDY0  TQ3  1  3.650000e-01  6.835000e+00
TDY0  Q3p  1  4.300000e-01  3.561000e+00
TDY0  SQ3p  1  4.100000e-01  4.880000e+00
TDY0  TQ3p  1  3.650000e-01  6.605000e+00
TDY0  Q3n  1  4.300000e-01  4.171000e+00
TDY0  SQ3n  1  4.100000e-01  5.590000e+00
TDY0  TQ3n  1  3.650000e-01  7.365000e+00
TDY0  Q2  1  4.300000e-01  4.010000e+00
TDY0  SQ2  1  4.100000e-01  5.204000e+00
TDY0  TQ2  1  3.650000e-01  7.030000e+00
TDY0  Q2p  1  4.300000e-01  3.580000e+00
TDY0  SQ2p  1  4.100000e-01  4.974000e+00
TDY0  TQ2p  1  3.650000e-01  6.800000e+00
TDY0  Q2n  1  4.300000e-01  4.190000e+00
TDY0  SQ2n  1  4.100000e-01  5.684000e+00
TDY0  TQ2n  1  3.650000e-01  7.560000e+00
TDY0  Q1  1  4.300000e-01  3.821000e+00
TDY0  SQ1  1  4.100000e-01  5.084000e+00
TDY0  TQ1  1  3.650000e-01  7.030000e+00
TDY0  Q1p  1  4.300000e-01  3.371000e+00
TDY0  SQ1p  1  4.100000e-01  4.844000e+00
TDY0  TQ1p  1  3.650000e-01  6.800000e+00
TDY0  Q1n  1  4.300000e-01  4.031000e+00
TDY0  SQ1n  1  4.100000e-01  5.554000e+00
TDY0  TQ1n  1  3.650000e-01  7.520000e+00
P6  TDY1  1  3.950000e-01  3.430000e+00
SP6  TDY1  1  3.650000e-01  3.100000e+00
TP6  TDY1  1  3.400000e-01  2.740000e+00
P5  TDY1  1  3.950000e-01  3.190000e+00
SP5  TDY1  1  3.650000e-01  2.830000e+00
TP5  TDY1  1  3.400000e-01  2.500000e+00
P4  TDY1  1  3.950000e-01  3.190000e+00
SP4  TDY1  1  3.650000e-01  2.830000e+00
TP4  TDY1  1  3.400000e-01  2.500000e+00
P3  TDY1  1  3.950000e-01  3.190000e+00
SP3  TDY1  1  3.650000e-01  2.830000e+00
TP3  TDY1  1  3.400000e-01  2.500000e+00
TDY1  P2  1  3.950000e-01  3.190000e+00
TDY1  SP2  1  3.650000e-01  2.830000e+00
TDY1  TP2  1  3.400000e-01  2.500000e+00
TDY1  P1  1  3.950000e-01  2.940000e+00
TDY1  SP1  1  3.650000e-01  2.570000e+00
TDY1  TP1  1  3.400000e-01  2.280000e+00
TDY1  N6  1  3.950000e-01  2.700000e+00
TDY1  SN6  1  3.650000e-01  2.340000e+00
TDY1  TN6  1  3.400000e-01  2.020000e+00
TDY1  N5  1  3.950000e-01  2.500000e+00
TDY1  SN5  1  3.650000e-01  2.110000e+00
TDY1  TN5  1  3.400000e-01  1.770000e+00
TDY1  N4  1  3.950000e-01  2.500000e+00
TDY1  SN4  1  3.650000e-01  2.110000e+00
TDY1  TN4  1  3.400000e-01  1.770000e+00
TDY1  N3  1  3.950000e-01  2.310000e+00
TDY1  SN3  1  3.650000e-01  1.910000e+00
TDY1  TN3  1  3.400000e-01  1.510000e+00
TDY1  N2  1  3.950000e-01  2.310000e+00
TDY1  SN2  1  3.650000e-01  1.910000e+00
TDY1  TN2  1  3.400000e-01  1.510000e+00
TDY1  N1  1  3.950000e-01  2.110000e+00
TDY1  SN1  1  3.650000e-01  1.750000e+00
TDY1  TN1  1  3.400000e-01  1.230000e+00
TDY1  C6  1  3.950000e-01  2.110000e+00
TDY1  SC6  1  3.650000e-01  1.750000e+00
TDY1  TC6  1  3.400000e-01  1.230000e+00
TDY1  C5  1  3.950000e-01  1.850000e+00
TDY1  SC5  1  3.660000e-01  1.600000e+00
TDY1  TC5  1  3.520000e-01  1.050000e+00
TDY1  C4  1  3.950000e-01  1.670000e+00
TDY1  SC4  1  3.780000e-01  1.450000e+00
TDY1  TC4  1  3.660000e-01  9.350000e-01
TDY1  C3  1  3.990000e-01  1.180000e+00
TDY1  SC3  1  4.040000e-01  1.130000e+00
TDY1  TC3  1  4.110000e-01  8.010000e-01
TDY1  C2  1  3.990000e-01  1.180000e+00
TDY1  SC2  1  4.040000e-01  1.130000e+00
TDY1  TC2  1  4.110000e-01  8.010000e-01
TDY1  C1  1  4.010000e-01  9.830000e-01
TDY1  SC1  1  4.090000e-01  1.080000e+00
TDY1  TC1  1  4.240000e-01  7.760000e-01
TDY1  X4  1  3.950000e-01  2.110000e+00
TDY1  SX4  1  3.650000e-01  1.750000e+00
TDY1  TX4  1  3.400000e-01  1.230000e+00
TDY1  X3  1  3.950000e-01  2.110000e+00
TDY1  SX3  1  3.650000e-01  1.750000e+00
TDY1  TX3  1  3.400000e-01  1.230000e+00
TDY1  X2  1  3.950000e-01  1.850000e+00
TDY1  SX2  1  3.660000e-01  1.600000e+00
TDY1  TX2  1  3.520000e-01  1.050000e+00
TDY1  X1  1  3.950000e-01  1.670000e+00
TDY1  SX1  1  3.780000e-01  1.450000e+00
TDY1  TX1  1  3.660000e-01  9.350000e-01
SP6a  TDY1  1  3.650000e-01  2.830000e+00
SP5a  TDY1  1  3.650000e-01  2.570000e+00
SP4a  TDY1  1  3.650000e-01  2.570000e+00
SP3a  TDY1  1  3.650000e-01  2.570000e+00
SP6d  TDY1  1  3.650000e-01  3.370000e+00
SP5d  TDY1  1  3.650000e-01  3.100000e+00
SP4d  TDY1  1  3.650000e-01  3.100000e+00
SP3d  TDY1  1  3.650000e-01  3.100000e+00
SP6q  TDY1  1  3.650000e-01  3.640000e+00
SP5q  TDY1  1  3.650000e-01  3.370000e+00
SP4q  TDY1  1  3.650000e-01  3.370000e+00
SP3q  TDY1  1  3.650000e-01  3.370000e+00
SP6h  TDY1  1  3.650000e-01  3.100000e+00
SP5h  TDY1  1  3.650000e-01  2.830000e+00
SP4h  TDY1  1  3.650000e-01  2.830000e+00
SP3h  TDY1  1  3.650000e-01  2.830000e+00
SP6r  TDY1  1  3.650000e-01  3.100000e+00
SP5r  TDY1  1  3.650000e-01  2.830000e+00
SP4r  TDY1  1  3.650000e-01  2.830000e+00
SP3r  TDY1  1  3.650000e-01  2.830000e+00
SP6dq  TDY1  1  3.650000e-01  3.930000e+00
SP5dq  TDY1  1  3.650000e-01  3.640000e+00
SP4dq  TDY1  1  3.650000e-01  3.640000e+00
SP3dq  TDY1  1  3.650000e-01  3.640000e+00
SP6aq  TDY1  1  3.650000e-01  3.370000e+00
SP5aq  TDY1  1  3.650000e-01  3.100000e+00
SP4aq  TDY1  1  3.650000e-01  3.100000e+00
SP6dh  TDY1  1  3.650000e-01  3.370000e+00
SP5dh  TDY1  1  3.650000e-01  3.100000e+00
SP4dh  TDY1  1  3.650000e-01  3.100000e+00
SP3dh  TDY1  1  3.650000e-01  3.100000e+00
SP6ah  TDY1  1  3.650000e-01  2.830000e+00
SP5ah  TDY1  1  3.650000e-01  2.570000e+00
SP4ah  TDY1  1  3.650000e-01  2.570000e+00
SP6dr  TDY1  1  3.650000e-01  3.370000e+00
SP5dr  TDY1  1  3.650000e-01  3.100000e+00
SP4dr  TDY1  1  3.650000e-01  3.100000e+00
SP3dr  TDY1  1  3.650000e-01  3.100000e+00
SP6ar  TDY1  1  3.650000e-01  2.830000e+00
SP5ar  TDY1  1  3.650000e-01  2.570000e+00
SP4ar  TDY1  1  3.650000e-01  2.570000e+00
TDY1  SP2dq  1  3.650000e-01  3.640000e+00
TDY1  SP1dq  1  3.650000e-01  3.370000e+00
TDY1  SN6dq  1  3.650000e-01  3.100000e+00
TDY1  SN5dq  1  3.650000e-01  2.830000e+00
TDY1  SN4dq  1  3.650000e-01  2.830000e+00
TDY1  SN3dq  1  3.650000e-01  2.570000e+00
TDY1  SN2dq  1  3.650000e-01  2.570000e+00
TDY1  SN1dq  1  3.650000e-01  2.110000e+00
TDY1  SP3aq  1  3.650000e-01  3.100000e+00
TDY1  SX1eq  1  3.660000e-01  1.600000e+00
TDY1  SX2eq  1  3.650000e-01  1.750000e+00
TDY1  SX3eq  1  3.650000e-01  1.910000e+00
TDY1  SX4eq  1  3.650000e-01  1.910000e+00
TDY1  SC1eq  1  4.040000e-01  1.130000e+00
TDY1  SC2eq  1  3.940000e-01  1.290000e+00
TDY1  SC3eq  1  3.940000e-01  1.290000e+00
TDY1  SC4eq  1  3.660000e-01  1.600000e+00
TDY1  SC5eq  1  3.650000e-01  1.750000e+00
TDY1  SC6eq  1  3.650000e-01  1.910000e+00
TDY1  SX1vq  1  3.650000e-01  1.910000e+00
TDY1  SX2vq  1  3.650000e-01  2.110000e+00
TDY1  SX3vq  1  3.650000e-01  2.340000e+00
TDY1  SX4vq  1  3.650000e-01  2.340000e+00
TDY1  SC1vq  1  3.780000e-01  1.450000e+00
TDY1  SC2vq  1  3.660000e-01  1.600000e+00
TDY1  SC3vq  1  3.660000e-01  1.600000e+00
TDY1  SC4vq  1  3.650000e-01  1.910000e+00
TDY1  SC5vq  1  3.650000e-01  2.110000e+00
TDY1  SC6vq  1  3.650000e-01  2.340000e+00
TDY1  SN1aq  1  3.650000e-01  2.110000e+00
TDY1  SN2aq  1  3.650000e-01  2.110000e+00
TDY1  SN3aq  1  3.650000e-01  2.110000e+00
TDY1  SN4aq  1  3.650000e-01  2.340000e+00
TDY1  SN5aq  1  3.650000e-01  2.340000e+00
TDY1  SN6aq  1  3.650000e-01  2.570000e+00
TDY1  SP1aq  1  3.650000e-01  2.830000e+00
TDY1  SP2aq  1  3.650000e-01  3.100000e+00
TDY1  SP2dh  1  3.650000e-01  3.100000e+00
TDY1  SP1dh  1  3.650000e-01  2.830000e+00
TDY1  SN6dh  1  3.650000e-01  2.570000e+00
TDY1  SN5dh  1  3.650000e-01  2.340000e+00
TDY1  SN4dh  1  3.650000e-01  2.340000e+00
TDY1  SN3dh  1  3.650000e-01  2.110000e+00
TDY1  SN2dh  1  3.650000e-01  2.110000e+00
TDY1  SN1dh  1  3.650000e-01  1.750000e+00
TDY1  SP3ah  1  3.650000e-01  2.570000e+00
TDY1  SX1eh  1  3.940000e-01  1.290000e+00
TDY1  SX2eh  1  3.780000e-01  1.450000e+00
TDY1  SX3eh  1  3.660000e-01  1.600000e+00
TDY1  SX4eh  1  3.660000e-01  1.600000e+00
TDY1  SC1eh  1  4.230000e-01  9.810000e-01
TDY1  SC2eh  1  4.090000e-01  1.080000e+00
TDY1  SC3eh  1  4.090000e-01  1.080000e+00
TDY1  SC4eh  1  3.940000e-01  1.290000e+00
TDY1  SC5eh  1  3.780000e-01  1.450000e+00
TDY1  SC6eh  1  3.660000e-01  1.600000e+00
TDY1  SX1vh  1  3.660000e-01  1.600000e+00
TDY1  SX2vh  1  3.650000e-01  1.750000e+00
TDY1  SX3vh  1  3.650000e-01  1.910000e+00
TDY1  SX4vh  1  3.650000e-01  1.910000e+00
TDY1  SC1vh  1  4.040000e-01  1.130000e+00
TDY1  SC2vh  1  3.940000e-01  1.290000e+00
TDY1  SC3vh  1  3.940000e-01  1.290000e+00
TDY1  SC4vh  1  3.660000e-01  1.600000e+00
TDY1  SC5vh  1  3.650000e-01  1.750000e+00
TDY1  SC6vh  1  3.650000e-01  1.910000e+00
TDY1  SN1ah  1  3.650000e-01  1.750000e+00
TDY1  SN2ah  1  3.650000e-01  1.750000e+00
TDY1  SN3ah  1  3.650000e-01  1.750000e+00
TDY1  SN4ah  1  3.650000e-01  1.910000e+00
TDY1  SN5ah  1  3.650000e-01  1.910000e+00
TDY1  SN6ah  1  3.650000e-01  2.110000e+00
TDY1  SP1ah  1  3.650000e-01  2.340000e+00
TDY1  SP2ah  1  3.650000e-01  2.570000e+00
TDY1  SP2dr  1  3.650000e-01  3.100000e+00
TDY1  SP1dr  1  3.650000e-01  2.830000e+00
TDY1  SN6dr  1  3.650000e-01  2.570000e+00
TDY1  SN5dr  1  3.650000e-01  2.340000e+00
TDY1  SN4dr  1  3.650000e-01  2.340000e+00
TDY1  SN3dr  1  3.650000e-01  2.110000e+00
TDY1  SN2dr  1  3.650000e-01  2.110000e+00
TDY1  SN1dr  1  3.650000e-01  1.750000e+00
TDY1  SP3ar  1  3.650000e-01  2.570000e+00
TDY1  SX1er  1  3.940000e-01  1.290000e+00
TDY1  SX2er  1  3.780000e-01  1.450000e+00
TDY1  SX3er  1  3.660000e-01  1.600000e+00
TDY1  SX4er  1  3.660000e-01  1.600000e+00
TDY1  SC1er  1  4.230000e-01  9.810000e-01
TDY1  SC2er  1  4.090000e-01  1.080000e+00
TDY1  SC3er  1  4.090000e-01  1.080000e+00
TDY1  SC4er  1  3.940000e-01  1.290000e+00
TDY1  SC5er  1  3.780000e-01  1.450000e+00
TDY1  SC6er  1  3.660000e-01  1.600000e+00
TDY1  SX1vr  1  3.660000e-01  1.600000e+00
TDY1  SX2vr  1  3.650000e-01  1.750000e+00
TDY1  SX3vr  1  3.650000e-01  1.910000e+00
TDY1  SX4vr  1  3.650000e-01  1.910000e+00
TDY1  SC1vr  1  4.040000e-01  1.130000e+00
TDY1  SC2vr  1  3.940000e-01  1.290000e+00
TDY1  SC3vr  1  3.940000e-01  1.290000e+00
TDY1  SC4vr  1  3.660000e-01  1.600000e+00
TDY1  SC5vr  1  3.650000e-01  1.750000e+00
TDY1  SC6vr  1  3.650000e-01  1.910000e+00
TDY1  SN1ar  1  3.650000e-01  1.750000e+00
TDY1  SN2ar  1  3.650000e-01  1.750000e+00
TDY1  SN3ar  1  3.650000e-01  1.750000e+00
TDY1  SN4ar  1  3.650000e-01  1.910000e+00
TDY1  SN5ar  1  3.650000e-01  1.910000e+00
TDY1  SN6ar  1  3.650000e-01  2.110000e+00
TDY1  SP1ar  1  3.650000e-01  2.340000e+00
TDY1  SP2ar  1  3.650000e-01  2.570000e+00
TDY1  SP2a  1  3.650000e-01  2.570000e+00
TDY1  SP1a  1  3.650000e-01  2.340000e+00
TDY1  SN6a  1  3.650000e-01  2.110000e+00
TDY1  SN5a  1  3.650000e-01  1.910000e+00
TDY1  SN4a  1  3.650000e-01  1.910000e+00
TDY1  SN3a  1  3.650000e-01  1.750000e+00
TDY1  SN2a  1  3.650000e-01  1.750000e+00
TDY1  SN1a  1  3.650000e-01  1.750000e+00
TDY1  SP2d  1  3.650000e-01  3.100000e+00
TDY1  SP1d  1  3.650000e-01  2.830000e+00
TDY1  SN6d  1  3.650000e-01  2.570000e+00
TDY1  SN5d  1  3.650000e-01  2.340000e+00
TDY1  SN4d  1  3.650000e-01  2.340000e+00
TDY1  SN3d  1  3.650000e-01  2.110000e+00
TDY1  SN2d  1  3.650000e-01  2.110000e+00
TDY1  SN1d  1  3.650000e-01  1.750000e+00
TDY1  SC6v  1  3.650000e-01  1.910000e+00
TDY1  SC5v  1  3.650000e-01  1.750000e+00
TDY1  SC4v  1  3.660000e-01  1.600000e+00
TDY1  SC3v  1  3.940000e-01  1.290000e+00
TDY1  SC2v  1  3.940000e-01  1.290000e+00
TDY1  SC1v  1  4.040000e-01  1.130000e+00
TDY1  SX4v  1  3.650000e-01  1.910000e+00
TDY1  SX3v  1  3.650000e-01  1.910000e+00
TDY1  SX2v  1  3.650000e-01  1.750000e+00
TDY1  SX1v  1  3.660000e-01  1.600000e+00
TDY1  SC6e  1  3.660000e-01  1.600000e+00
TDY1  SC5e  1  3.780000e-01  1.450000e+00
TDY1  SC4e  1  3.940000e-01  1.290000e+00
TDY1  SC3e  1  4.090000e-01  1.080000e+00
TDY1  SC2e  1  4.090000e-01  1.080000e+00
TDY1  SC1e  1  4.230000e-01  9.810000e-01
TDY1  SX4e  1  3.660000e-01  1.600000e+00
TDY1  SX3e  1  3.660000e-01  1.600000e+00
TDY1  SX2e  1  3.780000e-01  1.450000e+00
TDY1  SX1e  1  3.940000e-01  1.290000e+00
TDY1  SP2q  1  3.650000e-01  3.370000e+00
TDY1  SP1q  1  3.650000e-01  3.100000e+00
TDY1  SN6q  1  3.650000e-01  2.830000e+00
TDY1  SN5q  1  3.650000e-01  2.570000e+00
TDY1  SN4q  1  3.650000e-01  2.570000e+00
TDY1  SN3q  1  3.650000e-01  2.340000e+00
TDY1  SN2q  1  3.650000e-01  2.340000e+00
TDY1  SN1q  1  3.650000e-01  2.110000e+00
TDY1  SC6q  1  3.650000e-01  2.110000e+00
TDY1  SC5q  1  3.650000e-01  1.910000e+00
TDY1  SC4q  1  3.650000e-01  1.750000e+00
TDY1  SC3q  1  3.780000e-01  1.450000e+00
TDY1  SC2q  1  3.780000e-01  1.450000e+00
TDY1  SC1q  1  3.940000e-01  1.290000e+00
TDY1  SX4q  1  3.650000e-01  2.110000e+00
TDY1  SX3q  1  3.650000e-01  2.110000e+00
TDY1  SX2q  1  3.650000e-01  1.910000e+00
TDY1  SX1q  1  3.650000e-01  1.750000e+00
TDY1  SP2h  1  3.650000e-01  2.830000e+00
TDY1  SP1h  1  3.650000e-01  2.570000e+00
TDY1  SN6h  1  3.650000e-01  2.340000e+00
TDY1  SN5h  1  3.650000e-01  2.110000e+00
TDY1  SN4h  1  3.650000e-01  2.110000e+00
TDY1  SN3h  1  3.650000e-01  1.910000e+00
TDY1  SN2h  1  3.650000e-01  1.910000e+00
TDY1  SN1h  1  3.650000e-01  1.750000e+00
TDY1  SC6h  1  3.650000e-01  1.750000e+00
TDY1  SC5h  1  3.660000e-01  1.600000e+00
TDY1  SC4h  1  3.780000e-01  1.450000e+00
TDY1  SC3h  1  4.040000e-01  1.130000e+00
TDY1  SC2h  1  4.040000e-01  1.130000e+00
TDY1  SC1h  1  4.090000e-01  1.080000e+00
TDY1  SX4h  1  3.650000e-01  1.750000e+00
TDY1  SX3h  1  3.650000e-01  1.750000e+00
TDY1  SX2h  1  3.660000e-01  1.600000e+00
TDY1  SX1h  1  3.780000e-01  1.450000e+00
TDY1  SP2r  1  3.650000e-01  2.830000e+00
TDY1  SP1r  1  3.650000e-01  2.570000e+00
TDY1  SN6r  1  3.650000e-01  2.340000e+00
TDY1  SN5r  1  3.650000e-01  2.110000e+00
TDY1  SN4r  1  3.650000e-01  2.110000e+00
TDY1  SN3r  1  3.650000e-01  1.910000e+00
TDY1  SN2r  1  3.650000e-01  1.910000e+00
TDY1  SN1r  1  3.650000e-01  1.750000e+00
TDY1  SC6r  1  3.650000e-01  1.750000e+00
TDY1  SC5r  1  3.660000e-01  1.600000e+00
TDY1  SC4r  1  3.780000e-01  1.450000e+00
TDY1  SC3r  1  4.040000e-01  1.130000e+00
TDY1  SC2r  1  4.040000e-01  1.130000e+00
TDY1  SC1r  1  4.090000e-01  1.080000e+00
TDY1  SX4r  1  3.650000e-01  1.750000e+00
TDY1  SX3r  1  3.650000e-01  1.750000e+00
TDY1  SX2r  1  3.660000e-01  1.600000e+00
TDY1  SX1r  1  3.780000e-01  1.450000e+00
P6a  TDY1  1  3.950000e-01  3.190000e+00
P5a  TDY1  1  3.950000e-01  2.940000e+00
P4a  TDY1  1  3.950000e-01  2.940000e+00
P3a  TDY1  1  3.950000e-01  2.940000e+00
P6d  TDY1  1  3.950000e-01  3.670000e+00
P5d  TDY1  1  3.950000e-01  3.430000e+00
P4d  TDY1  1  3.950000e-01  3.430000e+00
P3d  TDY1  1  3.950000e-01  3.430000e+00
P6q  TDY1  1  3.950000e-01  3.910000e+00
P5q  TDY1  1  3.950000e-01  3.670000e+00
P4q  TDY1  1  3.950000e-01  3.670000e+00
P3q  TDY1  1  3.950000e-01  3.670000e+00
P6dq  TDY1  1  3.950000e-01  4.230000e+00
P5dq  TDY1  1  3.950000e-01  3.910000e+00
P4dq  TDY1  1  3.950000e-01  3.910000e+00
P3dq  TDY1  1  3.950000e-01  3.910000e+00
P6aq  TDY1  1  3.950000e-01  3.670000e+00
P5aq  TDY1  1  3.950000e-01  3.430000e+00
P4aq  TDY1  1  3.950000e-01  3.430000e+00
P6h  TDY1  1  3.950000e-01  3.430000e+00
P5h  TDY1  1  3.950000e-01  3.190000e+00
P4h  TDY1  1  3.950000e-01  3.190000e+00
P3h  TDY1  1  3.950000e-01  3.190000e+00
P6dh  TDY1  1  3.950000e-01  3.670000e+00
P5dh  TDY1  1  3.950000e-01  3.430000e+00
P4dh  TDY1  1  3.950000e-01  3.430000e+00
P3dh  TDY1  1  3.950000e-01  3.430000e+00
P6ah  TDY1  1  3.950000e-01  3.190000e+00
P5ah  TDY1  1  3.950000e-01  2.940000e+00
P4ah  TDY1  1  3.950000e-01  2.940000e+00
P6r  TDY1  1  3.950000e-01  3.430000e+00
P5r  TDY1  1  3.950000e-01  3.190000e+00
P4r  TDY1  1  3.950000e-01  3.190000e+00
P3r  TDY1  1  3.950000e-01  3.190000e+00
P6dr  TDY1  1  3.950000e-01  3.670000e+00
P5dr  TDY1  1  3.950000e-01  3.430000e+00
P4dr  TDY1  1  3.950000e-01  3.430000e+00
P3dr  TDY1  1  3.950000e-01  3.430000e+00
P6ar  TDY1  1  3.950000e-01  3.190000e+00
P5ar  TDY1  1  3.950000e-01  2.940000e+00
P4ar  TDY1  1  3.950000e-01  2.940000e+00
TDY1  P2a  1  3.950000e-01  2.940000e+00
TDY1  P1a  1  3.950000e-01  2.700000e+00
TDY1  N6a  1  3.950000e-01  2.500000e+00
TDY1  N5a  1  3.950000e-01  2.310000e+00
TDY1  N4a  1  3.950000e-01  2.310000e+00
TDY1  N3a  1  3.950000e-01  2.110000e+00
TDY1  N2a  1  3.950000e-01  2.110000e+00
TDY1  N1a  1  3.950000e-01  2.110000e+00
TDY1  P2d  1  3.950000e-01  3.430000e+00
TDY1  P1d  1  3.950000e-01  3.190000e+00
TDY1  N6d  1  3.950000e-01  2.940000e+00
TDY1  N5d  1  3.950000e-01  2.700000e+00
TDY1  N4d  1  3.950000e-01  2.700000e+00
TDY1  N3d  1  3.950000e-01  2.500000e+00
TDY1  N2d  1  3.950000e-01  2.500000e+00
TDY1  N1d  1  3.950000e-01  2.110000e+00
TDY1  C6v  1  3.950000e-01  2.310000e+00
TDY1  C5v  1  3.950000e-01  2.110000e+00
TDY1  C4v  1  3.950000e-01  1.850000e+00
TDY1  C3v  1  3.980000e-01  1.450000e+00
TDY1  C2v  1  3.980000e-01  1.450000e+00
TDY1  C1v  1  3.990000e-01  1.180000e+00
TDY1  X4v  1  3.950000e-01  2.310000e+00
TDY1  X3v  1  3.950000e-01  2.310000e+00
TDY1  X2v  1  3.950000e-01  2.110000e+00
TDY1  X1v  1  3.950000e-01  1.850000e+00
TDY1  C6e  1  3.950000e-01  1.850000e+00
TDY1  C5e  1  3.950000e-01  1.670000e+00
TDY1  C4e  1  3.980000e-01  1.450000e+00
TDY1  C3e  1  4.010000e-01  9.830000e-01
TDY1  C2e  1  4.010000e-01  9.830000e-01
TDY1  C1e  1  4.040000e-01  8.300000e-01
TDY1  X4e  1  3.950000e-01  1.850000e+00
TDY1  X3e  1  3.950000e-01  1.850000e+00
TDY1  X2e  1  3.950000e-01  1.670000e+00
TDY1  X1e  1  3.980000e-01  1.450000e+00
TDY1  P2q  1  3.950000e-01  3.670000e+00
TDY1  P1q  1  3.950000e-01  3.430000e+00
TDY1  N6q  1  3.950000e-01  3.190000e+00
TDY1  N5q  1  3.950000e-01  2.940000e+00
TDY1  N4q  1  3.950000e-01  2.940000e+00
TDY1  N3q  1  3.950000e-01  2.700000e+00
TDY1  N2q  1  3.950000e-01  2.700000e+00
TDY1  N1q  1  3.950000e-01  2.500000e+00
TDY1  C6q  1  3.950000e-01  2.500000e+00
TDY1  C5q  1  3.950000e-01  2.310000e+00
TDY1  C4q  1  3.950000e-01  2.110000e+00
TDY1  C3q  1  3.950000e-01  1.670000e+00
TDY1  C2q  1  3.950000e-01  1.670000e+00
TDY1  C1q  1  3.980000e-01  1.450000e+00
TDY1  X4q  1  3.950000e-01  2.500000e+00
TDY1  X3q  1  3.950000e-01  2.500000e+00
TDY1  X2q  1  3.950000e-01  2.310000e+00
TDY1  X1q  1  3.950000e-01  2.110000e+00
TDY1  P2dq  1  3.950000e-01  3.910000e+00
TDY1  P1dq  1  3.950000e-01  3.670000e+00
TDY1  N6dq  1  3.950000e-01  3.430000e+00
TDY1  N5dq  1  3.950000e-01  3.190000e+00
TDY1  N4dq  1  3.950000e-01  3.190000e+00
TDY1  N3dq  1  3.950000e-01  2.940000e+00
TDY1  N2dq  1  3.950000e-01  2.940000e+00
TDY1  N1dq  1  3.950000e-01  2.500000e+00
TDY1  P3aq  1  3.950000e-01  3.430000e+00
TDY1  X1eq  1  3.950000e-01  1.850000e+00
TDY1  X2eq  1  3.950000e-01  2.110000e+00
TDY1  X3eq  1  3.950000e-01  2.310000e+00
TDY1  X4eq  1  3.950000e-01  2.310000e+00
TDY1  C1eq  1  3.990000e-01  1.180000e+00
TDY1  C2eq  1  3.980000e-01  1.450000e+00
TDY1  C3eq  1  3.980000e-01  1.450000e+00
TDY1  C4eq  1  3.950000e-01  1.850000e+00
TDY1  C5eq  1  3.950000e-01  2.110000e+00
TDY1  C6eq  1  3.950000e-01  2.310000e+00
TDY1  X1vq  1  3.950000e-01  2.310000e+00
TDY1  X2vq  1  3.950000e-01  2.500000e+00
TDY1  X3vq  1  3.950000e-01  2.700000e+00
TDY1  X4vq  1  3.950000e-01  2.700000e+00
TDY1  C1vq  1  3.950000e-01  1.670000e+00
TDY1  C2vq  1  3.950000e-01  1.850000e+00
TDY1  C3vq  1  3.950000e-01  1.850000e+00
TDY1  C4vq  1  3.950000e-01  2.310000e+00
TDY1  C5vq  1  3.950000e-01  2.500000e+00
TDY1  C6vq  1  3.950000e-01  2.700000e+00
TDY1  N1aq  1  3.950000e-01  2.500000e+00
TDY1  N2aq  1  3.950000e-01  2.500000e+00
TDY1  N3aq  1  3.950000e-01  2.500000e+00
TDY1  N4aq  1  3.950000e-01  2.700000e+00
TDY1  N5aq  1  3.950000e-01  2.700000e+00
TDY1  N6aq  1  3.950000e-01  2.940000e+00
TDY1  P1aq  1  3.950000e-01  3.190000e+00
TDY1  P2aq  1  3.950000e-01  3.430000e+00
TDY1  P2h  1  3.950000e-01  3.190000e+00
TDY1  P1h  1  3.950000e-01  2.940000e+00
TDY1  N6h  1  3.950000e-01  2.700000e+00
TDY1  N5h  1  3.950000e-01  2.500000e+00
TDY1  N4h  1  3.950000e-01  2.500000e+00
TDY1  N3h  1  3.950000e-01  2.310000e+00
TDY1  N2h  1  3.950000e-01  2.310000e+00
TDY1  N1h  1  3.950000e-01  2.110000e+00
TDY1  C6h  1  3.950000e-01  2.110000e+00
TDY1  C5h  1  3.950000e-01  1.850000e+00
TDY1  C4h  1  3.950000e-01  1.670000e+00
TDY1  C3h  1  3.990000e-01  1.180000e+00
TDY1  C2h  1  3.990000e-01  1.180000e+00
TDY1  C1h  1  4.010000e-01  9.830000e-01
TDY1  X4h  1  3.950000e-01  2.110000e+00
TDY1  X3h  1  3.950000e-01  2.110000e+00
TDY1  X2h  1  3.950000e-01  1.850000e+00
TDY1  X1h  1  3.950000e-01  1.670000e+00
TDY1  P2dh  1  3.950000e-01  3.430000e+00
TDY1  P1dh  1  3.950000e-01  3.190000e+00
TDY1  N6dh  1  3.950000e-01  2.940000e+00
TDY1  N5dh  1  3.950000e-01  2.700000e+00
TDY1  N4dh  1  3.950000e-01  2.700000e+00
TDY1  N3dh  1  3.950000e-01  2.500000e+00
TDY1  N2dh  1  3.950000e-01  2.500000e+00
TDY1  N1dh  1  3.950000e-01  2.110000e+00
TDY1  P3ah  1  3.950000e-01  2.940000e+00
TDY1  X1eh  1  3.980000e-01  1.450000e+00
TDY1  X2eh  1  3.950000e-01  1.670000e+00
TDY1  X3eh  1  3.950000e-01  1.850000e+00
TDY1  X4eh  1  3.950000e-01  1.850000e+00
TDY1  C1eh  1  4.040000e-01  8.300000e-01
TDY1  C2eh  1  4.010000e-01  9.830000e-01
TDY1  C3eh  1  4.010000e-01  9.830000e-01
TDY1  C4eh  1  3.980000e-01  1.450000e+00
TDY1  C5eh  1  3.950000e-01  1.670000e+00
TDY1  C6eh  1  3.950000e-01  1.850000e+00
TDY1  X1vh  1  3.950000e-01  1.850000e+00
TDY1  X2vh  1  3.950000e-01  2.110000e+00
TDY1  X3vh  1  3.950000e-01  2.310000e+00
TDY1  X4vh  1  3.950000e-01  2.310000e+00
TDY1  C1vh  1  3.990000e-01  1.180000e+00
TDY1  C2vh  1  3.980000e-01  1.450000e+00
TDY1  C3vh  1  3.980000e-01  1.450000e+00
TDY1  C4vh  1  3.950000e-01  1.850000e+00
TDY1  C5vh  1  3.950000e-01  2.110000e+00
TDY1  C6vh  1  3.950000e-01  2.310000e+00
TDY1  N1ah  1  3.950000e-01  2.110000e+00
TDY1  N2ah  1  3.950000e-01  2.110000e+00
TDY1  N3ah  1  3.950000e-01  2.110000e+00
TDY1  N4ah  1  3.950000e-01  2.310000e+00
TDY1  N5ah  1  3.950000e-01  2.310000e+00
TDY1  N6ah  1  3.950000e-01  2.500000e+00
TDY1  P1ah  1  3.950000e-01  2.700000e+00
TDY1  P2ah  1  3.950000e-01  2.940000e+00
TDY1  P2r  1  3.950000e-01  3.190000e+00
TDY1  P1r  1  3.950000e-01  2.940000e+00
TDY1  N6r  1  3.950000e-01  2.700000e+00
TDY1  N5r  1  3.950000e-01  2.500000e+00
TDY1  N4r  1  3.950000e-01  2.500000e+00
TDY1  N3r  1  3.950000e-01  2.310000e+00
TDY1  N2r  1  3.950000e-01  2.310000e+00
TDY1  N1r  1  3.950000e-01  2.110000e+00
TDY1  C6r  1  3.950000e-01  2.110000e+00
TDY1  C5r  1  3.950000e-01  1.850000e+00
TDY1  C4r  1  3.950000e-01  1.670000e+00
TDY1  C3r  1  3.990000e-01  1.180000e+00
TDY1  C2r  1  3.990000e-01  1.180000e+00
TDY1  C1r  1  4.010000e-01  9.830000e-01
TDY1  X4r  1  3.950000e-01  2.110000e+00
TDY1  X3r  1  3.950000e-01  2.110000e+00
TDY1  X2r  1  3.950000e-01  1.850000e+00
TDY1  X1r  1  3.950000e-01  1.670000e+00
TDY1  P2dr  1  3.950000e-01  3.430000e+00
TDY1  P1dr  1  3.950000e-01  3.190000e+00
TDY1  N6dr  1  3.950000e-01  2.940000e+00
TDY1  N5dr  1  3.950000e-01  2.700000e+00
TDY1  N4dr  1  3.950000e-01  2.700000e+00
TDY1  N3dr  1  3.950000e-01  2.500000e+00
TDY1  N2dr  1  3.950000e-01  2.500000e+00
TDY1  N1dr  1  3.950000e-01  2.110000e+00
TDY1  P3ar  1  3.950000e-01  2.940000e+00
TDY1  X1er  1  3.980000e-01  1.450000e+00
TDY1  X2er  1  3.950000e-01  1.670000e+00
TDY1  X3er  1  3.950000e-01  1.850000e+00
TDY1  X4er  1  3.950000e-01  1.850000e+00
TDY1  C1er  1  4.040000e-01  8.300000e-01
TDY1  C2er  1  4.010000e-01  9.830000e-01
TDY1  C3er  1  4.010000e-01  9.830000e-01
TDY1  C4er  1  3.980000e-01  1.450000e+00
TDY1  C5er  1  3.950000e-01  1.670000e+00
TDY1  C6er  1  3.950000e-01  1.850000e+00
TDY1  X1vr  1  3.950000e-01  1.850000e+00
TDY1  X2vr  1  3.950000e-01  2.110000e+00
TDY1  X3vr  1  3.950000e-01  2.310000e+00
TDY1  X4vr  1  3.950000e-01  2.310000e+00
TDY1  C1vr  1  3.990000e-01  1.180000e+00
TDY1  C2vr  1  3.980000e-01  1.450000e+00
TDY1  C3vr  1  3.980000e-01  1.450000e+00
TDY1  C4vr  1  3.950000e-01  1.850000e+00
TDY1  C5vr  1  3.950000e-01  2.110000e+00
TDY1  C6vr  1  3.950000e-01  2.310000e+00
TDY1  N1ar  1  3.950000e-01  2.110000e+00
TDY1  N2ar  1  3.950000e-01  2.110000e+00
TDY1  N3ar  1  3.950000e-01  2.110000e+00
TDY1  N4ar  1  3.950000e-01  2.310000e+00
TDY1  N5ar  1  3.950000e-01  2.310000e+00
TDY1  N6ar  1  3.950000e-01  2.500000e+00
TDY1  P1ar  1  3.950000e-01  2.700000e+00
TDY1  P2ar  1  3.950000e-01  2.940000e+00
TP6d  TDY1  1  3.400000e-01  3.470000e+00
TP5d  TDY1  1  3.400000e-01  3.220000e+00
TP4d  TDY1  1  3.400000e-01  3.220000e+00
TP3d  TDY1  1  3.400000e-01  3.220000e+00
TP6dq  TDY1  1  3.400000e-01  4.020000e+00
TP5dq  TDY1  1  3.400000e-01  3.750000e+00
TP4dq  TDY1  1  3.400000e-01  3.750000e+00
TP3dq  TDY1  1  3.400000e-01  3.750000e+00
TP6dh  TDY1  1  3.400000e-01  3.470000e+00
TP5dh  TDY1  1  3.400000e-01  3.220000e+00
TP4dh  TDY1  1  3.400000e-01  3.220000e+00
TP3dh  TDY1  1  3.400000e-01  3.220000e+00
TP6dr  TDY1  1  3.400000e-01  3.470000e+00
TP5dr  TDY1  1  3.400000e-01  3.220000e+00
TP4dr  TDY1  1  3.400000e-01  3.220000e+00
TP3dr  TDY1  1  3.400000e-01  3.220000e+00
TDY1  TP2d  1  3.400000e-01  3.220000e+00
TDY1  TP1d  1  3.400000e-01  2.990000e+00
TDY1  TN6d  1  3.400000e-01  2.740000e+00
TDY1  TN5d  1  3.400000e-01  2.500000e+00
TDY1  TN4d  1  3.400000e-01  2.500000e+00
TDY1  TN3d  1  3.400000e-01  2.280000e+00
TDY1  TN2d  1  3.400000e-01  2.280000e+00
TDY1  TN1d  1  3.400000e-01  1.230000e+00
TDY1  TP2dq  1  3.400000e-01  3.750000e+00
TDY1  TP1dq  1  3.400000e-01  3.470000e+00
TDY1  TN6dq  1  3.400000e-01  3.220000e+00
TDY1  TN5dq  1  3.400000e-01  2.990000e+00
TDY1  TN4dq  1  3.400000e-01  2.990000e+00
TDY1  TN3dq  1  3.400000e-01  2.740000e+00
TDY1  TN2dq  1  3.400000e-01  2.740000e+00
TDY1  TN1dq  1  3.400000e-01  2.280000e+00
TDY1  TP2dh  1  3.400000e-01  3.220000e+00
TDY1  TP1dh  1  3.400000e-01  2.990000e+00
TDY1  TN6dh  1  3.400000e-01  2.740000e+00
TDY1  TN5dh  1  3.400000e-01  2.500000e+00
TDY1  TN4dh  1  3.400000e-01  2.500000e+00
TDY1  TN3dh  1  3.400000e-01  2.280000e+00
TDY1  TN2dh  1  3.400000e-01  2.280000e+00
TDY1  TN1dh  1  3.400000e-01  1.230000e+00
TDY1  TP2dr  1  3.400000e-01  3.220000e+00
TDY1  TP1dr  1  3.400000e-01  2.990000e+00
TDY1  TN6dr  1  3.400000e-01  2.740000e+00
TDY1  TN5dr  1  3.400000e-01  2.500000e+00
TDY1  TN4dr  1  3.400000e-01  2.500000e+00
TDY1  TN3dr  1  3.400000e-01  2.280000e+00
TDY1  TN2dr  1  3.400000e-01  2.280000e+00
TDY1  TN1dr  1  3.400000e-01  1.230000e+00
TDY1  TC6v  1  3.400000e-01  1.510000e+00
TDY1  TC5v  1  3.400000e-01  1.230000e+00
TDY1  TC4v  1  3.520000e-01  1.050000e+00
TDY1  TC3v  1  3.850000e-01  8.550000e-01
TDY1  TC2v  1  3.850000e-01  8.550000e-01
TDY1  TC1v  1  4.110000e-01  8.010000e-01
TDY1  TX4v  1  3.400000e-01  1.510000e+00
TDY1  TX3v  1  3.400000e-01  1.510000e+00
TDY1  TX2v  1  3.400000e-01  1.230000e+00
TDY1  TX1v  1  3.520000e-01  1.050000e+00
TDY1  TX1vq  1  3.400000e-01  1.510000e+00
TDY1  TX2vq  1  3.400000e-01  1.770000e+00
TDY1  TX3vq  1  3.400000e-01  2.020000e+00
TDY1  TX4vq  1  3.400000e-01  2.020000e+00
TDY1  TC1vq  1  3.660000e-01  9.350000e-01
TDY1  TC2vq  1  3.520000e-01  1.050000e+00
TDY1  TC3vq  1  3.520000e-01  1.050000e+00
TDY1  TC4vq  1  3.400000e-01  1.510000e+00
TDY1  TC5vq  1  3.400000e-01  1.770000e+00
TDY1  TC6vq  1  3.400000e-01  2.020000e+00
TDY1  TX1vh  1  3.520000e-01  1.050000e+00
TDY1  TX2vh  1  3.400000e-01  1.230000e+00
TDY1  TX3vh  1  3.400000e-01  1.510000e+00
TDY1  TX4vh  1  3.400000e-01  1.510000e+00
TDY1  TC1vh  1  4.110000e-01  8.010000e-01
TDY1  TC2vh  1  3.850000e-01  8.550000e-01
TDY1  TC3vh  1  3.850000e-01  8.550000e-01
TDY1  TC4vh  1  3.520000e-01  1.050000e+00
TDY1  TC5vh  1  3.400000e-01  1.230000e+00
TDY1  TC6vh  1  3.400000e-01  1.510000e+00
TDY1  TX1vr  1  3.520000e-01  1.050000e+00
TDY1  TX2vr  1  3.400000e-01  1.230000e+00
TDY1  TX3vr  1  3.400000e-01  1.510000e+00
TDY1  TX4vr  1  3.400000e-01  1.510000e+00
TDY1  TC1vr  1  4.110000e-01  8.010000e-01
TDY1  TC2vr  1  3.850000e-01  8.550000e-01
TDY1  TC3vr  1  3.850000e-01  8.550000e-01
TDY1  TC4vr  1  3.520000e-01  1.050000e+00
TDY1  TC5vr  1  3.400000e-01  1.230000e+00
TDY1  TC6vr  1  3.400000e-01  1.510000e+00
TDY1  TC6e  1  3.520000e-01  1.050000e+00
TDY1  TC5e  1  3.660000e-01  9.350000e-01
TDY1  TC4e  1  3.850000e-01  8.550000e-01
TDY1  TC3e  1  4.240000e-01  7.760000e-01
TDY1  TC2e  1  4.240000e-01  7.760000e-01
TDY1  TC1e  1  4.380000e-01  7.310000e-01
TDY1  TX4e  1  3.520000e-01  1.050000e+00
TDY1  TX3e  1  3.520000e-01  1.050000e+00
TDY1  TX2e  1  3.660000e-01  9.350000e-01
TDY1  TX1e  1  3.850000e-01  8.550000e-01
TDY1  TX1eq  1  3.520000e-01  1.050000e+00
TDY1  TX2eq  1  3.400000e-01  1.230000e+00
TDY1  TX3eq  1  3.400000e-01  1.510000e+00
TDY1  TX4eq  1  3.400000e-01  1.510000e+00
TDY1  TC1eq  1  4.110000e-01  8.010000e-01
TDY1  TC2eq  1  3.850000e-01  8.550000e-01
TDY1  TC3eq  1  3.850000e-01  8.550000e-01
TDY1  TC4eq  1  3.520000e-01  1.050000e+00
TDY1  TC5eq  1  3.400000e-01  1.230000e+00
TDY1  TC6eq  1  3.400000e-01  1.510000e+00
TDY1  TX1eh  1  3.850000e-01  8.550000e-01
TDY1  TX2eh  1  3.660000e-01  9.350000e-01
TDY1  TX3eh  1  3.520000e-01  1.050000e+00
TDY1  TX4eh  1  3.520000e-01  1.050000e+00
TDY1  TC1eh  1  4.380000e-01  7.310000e-01
TDY1  TC2eh  1  4.240000e-01  7.760000e-01
TDY1  TC3eh  1  4.240000e-01  7.760000e-01
TDY1  TC4eh  1  3.850000e-01  8.550000e-01
TDY1  TC5eh  1  3.660000e-01  9.350000e-01
TDY1  TC6eh  1  3.520000e-01  1.050000e+00
TDY1  TX1er  1  3.850000e-01  8.550000e-01
TDY1  TX2er  1  3.660000e-01  9.350000e-01
TDY1  TX3er  1  3.520000e-01  1.050000e+00
TDY1  TX4er  1  3.520000e-01  1.050000e+00
TDY1  TC1er  1  4.380000e-01  7.310000e-01
TDY1  TC2er  1  4.240000e-01  7.760000e-01
TDY1  TC3er  1  4.240000e-01  7.760000e-01
TDY1  TC4er  1  3.850000e-01  8.550000e-01
TDY1  TC5er  1  3.660000e-01  9.350000e-01
TDY1  TC6er  1  3.520000e-01  1.050000e+00
TDY1  TP3aq  1  3.400000e-01  2.740000e+00
TDY1  TN1aq  1  3.400000e-01  1.770000e+00
TDY1  TN2aq  1  3.400000e-01  1.770000e+00
TDY1  TN3aq  1  3.400000e-01  1.770000e+00
TDY1  TN4aq  1  3.400000e-01  2.020000e+00
TDY1  TN5aq  1  3.400000e-01  2.020000e+00
TDY1  TN6aq  1  3.400000e-01  2.280000e+00
TDY1  TP1aq  1  3.400000e-01  2.500000e+00
TDY1  TP2aq  1  3.400000e-01  2.740000e+00
TDY1  TP3ah  1  3.400000e-01  2.280000e+00
TDY1  TN1ah  1  3.400000e-01  1.230000e+00
TDY1  TN2ah  1  3.400000e-01  1.230000e+00
TDY1  TN3ah  1  3.400000e-01  1.230000e+00
TDY1  TN4ah  1  3.400000e-01  1.510000e+00
TDY1  TN5ah  1  3.400000e-01  1.510000e+00
TDY1  TN6ah  1  3.400000e-01  1.770000e+00
TDY1  TP1ah  1  3.400000e-01  2.020000e+00
TDY1  TP2ah  1  3.400000e-01  2.280000e+00
TDY1  TP3ar  1  3.400000e-01  2.280000e+00
TDY1  TN1ar  1  3.400000e-01  1.230000e+00
TDY1  TN2ar  1  3.400000e-01  1.230000e+00
TDY1  TN3ar  1  3.400000e-01  1.230000e+00
TDY1  TN4ar  1  3.400000e-01  1.510000e+00
TDY1  TN5ar  1  3.400000e-01  1.510000e+00
TDY1  TN6ar  1  3.400000e-01  1.770000e+00
TDY1  TP1ar  1  3.400000e-01  2.020000e+00
TDY1  TP2ar  1  3.400000e-01  2.280000e+00
TP6a  TDY1  1  3.400000e-01  2.500000e+00
TP5a  TDY1  1  3.400000e-01  2.280000e+00
TP4a  TDY1  1  3.400000e-01  2.280000e+00
TDY1  TP3a  1  3.400000e-01  2.280000e+00
TDY1  TP2a  1  3.400000e-01  2.280000e+00
TDY1  TP1a  1  3.400000e-01  2.020000e+00
TDY1  TN6a  1  3.400000e-01  1.770000e+00
TDY1  TN5a  1  3.400000e-01  1.510000e+00
TDY1  TN4a  1  3.400000e-01  1.510000e+00
TDY1  TN3a  1  3.400000e-01  1.230000e+00
TDY1  TN2a  1  3.400000e-01  1.230000e+00
TDY1  TN1a  1  3.400000e-01  1.230000e+00
TP6q  TDY1  1  3.400000e-01  3.220000e+00
TP5q  TDY1  1  3.400000e-01  2.990000e+00
TP4q  TDY1  1  3.400000e-01  2.990000e+00
TP3q  TDY1  1  3.400000e-01  2.990000e+00
TDY1  TP2q  1  3.400000e-01  2.990000e+00
TDY1  TP1q  1  3.400000e-01  2.740000e+00
TDY1  TN6q  1  3.400000e-01  2.500000e+00
TDY1  TN5q  1  3.400000e-01  2.280000e+00
TDY1  TN4q  1  3.400000e-01  2.280000e+00
TDY1  TN3q  1  3.400000e-01  2.020000e+00
TDY1  TN2q  1  3.400000e-01  2.020000e+00
TDY1  TN1q  1  3.400000e-01  1.770000e+00
TDY1  TC6q  1  3.400000e-01  1.770000e+00
TDY1  TC5q  1  3.400000e-01  1.510000e+00
TDY1  TC4q  1  3.400000e-01  1.230000e+00
TDY1  TC3q  1  3.660000e-01  9.350000e-01
TDY1  TC2q  1  3.660000e-01  9.350000e-01
TDY1  TC1q  1  3.850000e-01  8.550000e-01
TDY1  TX4q  1  3.400000e-01  1.770000e+00
TDY1  TX3q  1  3.400000e-01  1.770000e+00
TDY1  TX2q  1  3.400000e-01  1.510000e+00
TDY1  TX1q  1  3.400000e-01  1.230000e+00
TP6h  TDY1  1  3.400000e-01  2.740000e+00
TP5h  TDY1  1  3.400000e-01  2.500000e+00
TP4h  TDY1  1  3.400000e-01  2.500000e+00
TP3h  TDY1  1  3.400000e-01  2.500000e+00
TDY1  TP2h  1  3.400000e-01  2.500000e+00
TDY1  TP1h  1  3.400000e-01  2.280000e+00
TDY1  TN6h  1  3.400000e-01  2.020000e+00
TDY1  TN5h  1  3.400000e-01  1.770000e+00
TDY1  TN4h  1  3.400000e-01  1.770000e+00
TDY1  TN3h  1  3.400000e-01  1.510000e+00
TDY1  TN2h  1  3.400000e-01  1.510000e+00
TDY1  TN1h  1  3.400000e-01  1.230000e+00
TDY1  TC6h  1  3.400000e-01  1.230000e+00
TDY1  TC5h  1  3.520000e-01  1.050000e+00
TDY1  TC4h  1  3.660000e-01  9.350000e-01
TDY1  TC3h  1  4.110000e-01  8.010000e-01
TDY1  TC2h  1  4.110000e-01  8.010000e-01
TDY1  TC1h  1  4.240000e-01  7.760000e-01
TDY1  TX4h  1  3.400000e-01  1.230000e+00
TDY1  TX3h  1  3.400000e-01  1.230000e+00
TDY1  TX2h  1  3.520000e-01  1.050000e+00
TDY1  TX1h  1  3.660000e-01  9.350000e-01
TP6r  TDY1  1  3.400000e-01  2.740000e+00
TP5r  TDY1  1  3.400000e-01  2.500000e+00
TP4r  TDY1  1  3.400000e-01  2.500000e+00
TP3r  TDY1  1  3.400000e-01  2.500000e+00
TDY1  TP2r  1  3.400000e-01  2.500000e+00
TDY1  TP1r  1  3.400000e-01  2.280000e+00
TDY1  TN6r  1  3.400000e-01  2.020000e+00
TDY1  TN5r  1  3.400000e-01  1.770000e+00
TDY1  TN4r  1  3.400000e-01  1.770000e+00
TDY1  TN3r  1  3.400000e-01  1.510000e+00
TDY1  TN2r  1  3.400000e-01  1.510000e+00
TDY1  TN1r  1  3.400000e-01  1.230000e+00
TDY1  TC6r  1  3.400000e-01  1.230000e+00
TDY1  TC5r  1  3.520000e-01  1.050000e+00
TDY1  TC4r  1  3.660000e-01  9.350000e-01
TDY1  TC3r  1  4.110000e-01  8.010000e-01
TDY1  TC2r  1  4.110000e-01  8.010000e-01
TDY1  TC1r  1  4.240000e-01  7.760000e-01
TDY1  TX4r  1  3.400000e-01  1.230000e+00
TDY1  TX3r  1  3.400000e-01  1.230000e+00
TDY1  TX2r  1  3.520000e-01  1.050000e+00
TDY1  TX1r  1  3.660000e-01  9.350000e-01
TP6aq  TDY1  1  3.400000e-01  2.990000e+00
TP5aq  TDY1  1  3.400000e-01  2.740000e+00
TP4aq  TDY1  1  3.400000e-01  2.740000e+00
TP6ah  TDY1  1  3.400000e-01  2.500000e+00
TP5ah  TDY1  1  3.400000e-01  2.280000e+00
TP4ah  TDY1  1  3.400000e-01  2.280000e+00
TP6ar  TDY1  1  3.400000e-01  2.500000e+00
TP5ar  TDY1  1  3.400000e-01  2.280000e+00
TP4ar  TDY1  1  3.400000e-01  2.280000e+00
W  TDY1  1  3.850000e-01  3.420000e+00
SW  TDY1  1  3.750000e-01  2.720000e+00
TW  TDY1  1  3.450000e-01  2.600000e+00
TDY1  D  1  3.950000e-01  4.873000e+00
TDY1  SD  1  3.650000e-01  1.114500e+01
TDY1  TD  1  3.400000e-01  1.311400e+01
TDY1  Q5  1  3.950000e-01  4.279000e+00
TDY1  SQ5  1  3.650000e-01  5.665000e+00
TDY1  TQ5  1  3.400000e-01  7.674000e+00
TDY1  Q5p  1  3.950000e-01  4.909000e+00
TDY1  SQ5p  1  3.650000e-01  6.245000e+00
TDY1  TQ5p  1  3.400000e-01  8.474000e+00
TDY1  Q5n  1  3.950000e-01  4.039000e+00
TDY1  SQ5n  1  3.650000e-01  5.395000e+00
TDY1  TQ5n  1  3.400000e-01  7.444000e+00
TDY1  Q4  1  3.950000e-01  4.283000e+00
TDY1  SQ4  1  3.650000e-01  5.688000e+00
TDY1  TQ4  1  3.400000e-01  7.726000e+00
TDY1  Q4p  1  3.950000e-01  4.913000e+00
TDY1  SQ4p  1  3.650000e-01  6.268000e+00
TDY1  TQ4p  1  3.400000e-01  8.526000e+00
TDY1  Q4n  1  3.950000e-01  4.043000e+00
TDY1  SQ4n  1  3.650000e-01  5.418000e+00
TDY1  TQ4n  1  3.400000e-01  7.496000e+00
TDY1  Q3  1  3.950000e-01  4.059000e+00
TDY1  SQ3  1  3.650000e-01  5.502000e+00
TDY1  TQ3  1  3.400000e-01  7.681000e+00
TDY1  Q3p  1  3.950000e-01  4.619000e+00
TDY1  SQ3p  1  3.650000e-01  6.062000e+00
TDY1  TQ3p  1  3.400000e-01  8.441000e+00
TDY1  Q3n  1  3.950000e-01  3.819000e+00
TDY1  SQ3n  1  3.650000e-01  5.232000e+00
TDY1  TQ3n  1  3.400000e-01  7.431000e+00
TDY1  Q2  1  3.950000e-01  3.828000e+00
TDY1  SQ2  1  3.650000e-01  5.282000e+00
TDY1  TQ2  1  3.400000e-01  7.541000e+00
TDY1  Q2p  1  3.950000e-01  4.308000e+00
TDY1  SQ2p  1  3.650000e-01  5.822000e+00
TDY1  TQ2p  1  3.400000e-01  8.271000e+00
TDY1  Q2n  1  3.950000e-01  3.588000e+00
TDY1  SQ2n  1  3.650000e-01  5.012000e+00
TDY1  TQ2n  1  3.400000e-01  7.301000e+00
TDY1  Q1  1  3.950000e-01  3.830000e+00
TDY1  SQ1  1  3.650000e-01  5.294000e+00
TDY1  TQ1  1  3.400000e-01  7.566000e+00
TDY1  Q1p  1  3.950000e-01  4.310000e+00
TDY1  SQ1p  1  3.650000e-01  5.834000e+00
TDY1  TQ1p  1  3.400000e-01  8.296000e+00
TDY1  Q1n  1  3.950000e-01  3.590000e+00
TDY1  SQ1n  1  3.650000e-01  5.024000e+00
TDY1  TQ1n  1  3.400000e-01  7.326000e+00
P6  TDY2  1  3.950000e-01  3.190000e+00
SP6  TDY2  1  3.650000e-01  2.830000e+00
TP6  TDY2  1  3.400000e-01  2.500000e+00
P5  TDY2  1  3.950000e-01  2.940000e+00
SP5  TDY2  1  3.650000e-01  2.570000e+00
TP5  TDY2  1  3.400000e-01  2.280000e+00
P4  TDY2  1  3.950000e-01  2.940000e+00
SP4  TDY2  1  3.650000e-01  2.570000e+00
TP4  TDY2  1  3.400000e-01  2.280000e+00
P3  TDY2  1  3.950000e-01  2.940000e+00
SP3  TDY2  1  3.650000e-01  2.570000e+00
TP3  TDY2  1  3.400000e-01  2.280000e+00
P2  TDY2  1  3.950000e-01  2.940000e+00
SP2  TDY2  1  3.650000e-01  2.570000e+00
TP2  TDY2  1  3.400000e-01  2.280000e+00
P1  TDY2  1  3.950000e-01  2.940000e+00
SP1  TDY2  1  3.650000e-01  2.570000e+00
TP1  TDY2  1  3.400000e-01  2.280000e+00
TDY2  N6  1  3.950000e-01  2.940000e+00
TDY2  SN6  1  3.650000e-01  2.570000e+00
TDY2  TN6  1  3.400000e-01  2.280000e+00
TDY2  N5  1  3.950000e-01  2.700000e+00
TDY2  SN5  1  3.650000e-01  2.340000e+00
TDY2  TN5  1  3.400000e-01  2.020000e+00
TDY2  N4  1  3.950000e-01  2.700000e+00
TDY2  SN4  1  3.650000e-01  2.340000e+00
TDY2  TN4  1  3.400000e-01  2.020000e+00
TDY2  N3  1  3.950000e-01  2.310000e+00
TDY2  SN3  1  3.650000e-01  1.910000e+00
TDY2  TN3  1  3.400000e-01  1.510000e+00
TDY2  N2  1  3.950000e-01  2.310000e+00
TDY2  SN2  1  3.650000e-01  1.910000e+00
TDY2  TN2  1  3.400000e-01  1.510000e+00
TDY2  N1  1  3.950000e-01  2.310000e+00
TDY2  SN1  1  3.650000e-01  1.910000e+00
TDY2  TN1  1  3.400000e-01  1.510000e+00
TDY2  C6  1  3.950000e-01  2.110000e+00
TDY2  SC6  1  3.650000e-01  1.750000e+00
TDY2  TC6  1  3.400000e-01  1.230000e+00
TDY2  C5  1  3.950000e-01  1.850000e+00
TDY2  SC5  1  3.660000e-01  1.600000e+00
TDY2  TC5  1  3.520000e-01  1.050000e+00
TDY2  C4  1  3.950000e-01  1.670000e+00
TDY2  SC4  1  3.780000e-01  1.450000e+00
TDY2  TC4  1  3.660000e-01  9.350000e-01
TDY2  C3  1  3.980000e-01  1.450000e+00
TDY2  SC3  1  3.940000e-01  1.290000e+00
TDY2  TC3  1  3.850000e-01  8.550000e-01
TDY2  C2  1  3.980000e-01  1.450000e+00
TDY2  SC2  1  3.940000e-01  1.290000e+00
TDY2  TC2  1  3.850000e-01  8.550000e-01
TDY2  C1  1  3.990000e-01  1.180000e+00
TDY2  SC1  1  4.040000e-01  1.130000e+00
TDY2  TC1  1  4.110000e-01  8.010000e-01
TDY2  X4  1  3.950000e-01  2.110000e+00
TDY2  SX4  1  3.650000e-01  1.750000e+00
TDY2  TX4  1  3.400000e-01  1.230000e+00
TDY2  X3  1  3.950000e-01  2.110000e+00
TDY2  SX3  1  3.650000e-01  1.750000e+00
TDY2  TX3  1  3.400000e-01  1.230000e+00
TDY2  X2  1  3.950000e-01  1.850000e+00
TDY2  SX2  1  3.660000e-01  1.600000e+00
TDY2  TX2  1  3.520000e-01  1.050000e+00
TDY2  X1  1  3.950000e-01  1.670000e+00
TDY2  SX1  1  3.780000e-01  1.450000e+00
TDY2  TX1  1  3.660000e-01  9.350000e-01
SP6a  TDY2  1  3.650000e-01  2.570000e+00
SP5a  TDY2  1  3.650000e-01  2.340000e+00
SP4a  TDY2  1  3.650000e-01  2.340000e+00
SP3a  TDY2  1  3.650000e-01  2.340000e+00
SP2a  TDY2  1  3.650000e-01  2.340000e+00
SP1a  TDY2  1  3.650000e-01  2.340000e+00
SP6d  TDY2  1  3.650000e-01  3.100000e+00
SP5d  TDY2  1  3.650000e-01  2.830000e+00
SP4d  TDY2  1  3.650000e-01  2.830000e+00
SP3d  TDY2  1  3.650000e-01  2.830000e+00
SP2d  TDY2  1  3.650000e-01  2.830000e+00
SP1d  TDY2  1  3.650000e-01  2.830000e+00
SP6q  TDY2  1  3.650000e-01  3.370000e+00
SP5q  TDY2  1  3.650000e-01  3.100000e+00
SP4q  TDY2  1  3.650000e-01  3.100000e+00
SP3q  TDY2  1  3.650000e-01  3.100000e+00
SP2q  TDY2  1  3.650000e-01  3.100000e+00
SP1q  TDY2  1  3.650000e-01  3.100000e+00
SP6h  TDY2  1  3.650000e-01  2.830000e+00
SP5h  TDY2  1  3.650000e-01  2.570000e+00
SP4h  TDY2  1  3.650000e-01  2.570000e+00
SP3h  TDY2  1  3.650000e-01  2.570000e+00
SP2h  TDY2  1  3.650000e-01  2.570000e+00
SP1h  TDY2  1  3.650000e-01  2.570000e+00
SP6r  TDY2  1  3.650000e-01  2.830000e+00
SP5r  TDY2  1  3.650000e-01  2.570000e+00
SP4r  TDY2  1  3.650000e-01  2.570000e+00
SP3r  TDY2  1  3.650000e-01  2.570000e+00
SP2r  TDY2  1  3.650000e-01  2.570000e+00
SP1r  TDY2  1  3.650000e-01  2.570000e+00
SP6dq  TDY2  1  3.650000e-01  3.640000e+00
SP5dq  TDY2  1  3.650000e-01  3.370000e+00
SP4dq  TDY2  1  3.650000e-01  3.370000e+00
SP3dq  TDY2  1  3.650000e-01  3.370000e+00
SP2dq  TDY2  1  3.650000e-01  3.370000e+00
SP1dq  TDY2  1  3.650000e-01  3.370000e+00
SP6aq  TDY2  1  3.650000e-01  3.100000e+00
SP5aq  TDY2  1  3.650000e-01  2.830000e+00
SP4aq  TDY2  1  3.650000e-01  2.830000e+00
SP3aq  TDY2  1  3.650000e-01  2.830000e+00
SP2aq  TDY2  1  3.650000e-01  2.830000e+00
SP6dh  TDY2  1  3.650000e-01  3.100000e+00
SP5dh  TDY2  1  3.650000e-01  2.830000e+00
SP4dh  TDY2  1  3.650000e-01  2.830000e+00
SP3dh  TDY2  1  3.650000e-01  2.830000e+00
SP2dh  TDY2  1  3.650000e-01  2.830000e+00
SP1dh  TDY2  1  3.650000e-01  2.830000e+00
SP6ah  TDY2  1  3.650000e-01  2.570000e+00
SP5ah  TDY2  1  3.650000e-01  2.340000e+00
SP4ah  TDY2  1  3.650000e-01  2.340000e+00
SP3ah  TDY2  1  3.650000e-01  2.340000e+00
SP2ah  TDY2  1  3.650000e-01  2.340000e+00
SP6dr  TDY2  1  3.650000e-01  3.100000e+00
SP5dr  TDY2  1  3.650000e-01  2.830000e+00
SP4dr  TDY2  1  3.650000e-01  2.830000e+00
SP3dr  TDY2  1  3.650000e-01  2.830000e+00
SP2dr  TDY2  1  3.650000e-01  2.830000e+00
SP1dr  TDY2  1  3.650000e-01  2.830000e+00
SP6ar  TDY2  1  3.650000e-01  2.570000e+00
SP5ar  TDY2  1  3.650000e-01  2.340000e+00
SP4ar  TDY2  1  3.650000e-01  2.340000e+00
SP3ar  TDY2  1  3.650000e-01  2.340000e+00
SP2ar  TDY2  1  3.650000e-01  2.340000e+00
TDY2  SN6dq  1  3.650000e-01  3.370000e+00
TDY2  SN5dq  1  3.650000e-01  3.100000e+00
TDY2  SN4dq  1  3.650000e-01  3.100000e+00
TDY2  SN3dq  1  3.650000e-01  2.570000e+00
TDY2  SN2dq  1  3.650000e-01  2.570000e+00
TDY2  SN1dq  1  3.650000e-01  2.570000e+00
TDY2  SP1aq  1  3.650000e-01  2.830000e+00
TDY2  SX1eq  1  3.660000e-01  1.600000e+00
TDY2  SX2eq  1  3.650000e-01  1.750000e+00
TDY2  SX3eq  1  3.650000e-01  1.910000e+00
TDY2  SX4eq  1  3.650000e-01  1.910000e+00
TDY2  SC1eq  1  3.940000e-01  1.290000e+00
TDY2  SC2eq  1  3.780000e-01  1.450000e+00
TDY2  SC3eq  1  3.780000e-01  1.450000e+00
TDY2  SC4eq  1  3.660000e-01  1.600000e+00
TDY2  SC5eq  1  3.650000e-01  1.750000e+00
TDY2  SC6eq  1  3.650000e-01  1.910000e+00
TDY2  SX1vq  1  3.650000e-01  1.910000e+00
TDY2  SX2vq  1  3.650000e-01  2.110000e+00
TDY2  SX3vq  1  3.650000e-01  2.340000e+00
TDY2  SX4vq  1  3.650000e-01  2.340000e+00
TDY2  SC1vq  1  3.660000e-01  1.600000e+00
TDY2  SC2vq  1  3.650000e-01  1.750000e+00
TDY2  SC3vq  1  3.650000e-01  1.750000e+00
TDY2  SC4vq  1  3.650000e-01  1.910000e+00
TDY2  SC5vq  1  3.650000e-01  2.110000e+00
TDY2  SC6vq  1  3.650000e-01  2.340000e+00
TDY2  SN1aq  1  3.650000e-01  2.110000e+00
TDY2  SN2aq  1  3.650000e-01  2.110000e+00
TDY2  SN3aq  1  3.650000e-01  2.110000e+00
TDY2  SN4aq  1  3.650000e-01  2.570000e+00
TDY2  SN5aq  1  3.650000e-01  2.570000e+00
TDY2  SN6aq  1  3.650000e-01  2.830000e+00
TDY2  SN6dh  1  3.650000e-01  2.830000e+00
TDY2  SN5dh  1  3.650000e-01  2.570000e+00
TDY2  SN4dh  1  3.650000e-01  2.570000e+00
TDY2  SN3dh  1  3.650000e-01  2.110000e+00
TDY2  SN2dh  1  3.650000e-01  2.110000e+00
TDY2  SN1dh  1  3.650000e-01  2.110000e+00
TDY2  SP1ah  1  3.650000e-01  2.340000e+00
TDY2  SX1eh  1  3.940000e-01  1.290000e+00
TDY2  SX2eh  1  3.780000e-01  1.450000e+00
TDY2  SX3eh  1  3.660000e-01  1.600000e+00
TDY2  SX4eh  1  3.660000e-01  1.600000e+00
TDY2  SC1eh  1  4.090000e-01  1.080000e+00
TDY2  SC2eh  1  4.040000e-01  1.130000e+00
TDY2  SC3eh  1  4.040000e-01  1.130000e+00
TDY2  SC4eh  1  3.940000e-01  1.290000e+00
TDY2  SC5eh  1  3.780000e-01  1.450000e+00
TDY2  SC6eh  1  3.660000e-01  1.600000e+00
TDY2  SX1vh  1  3.660000e-01  1.600000e+00
TDY2  SX2vh  1  3.650000e-01  1.750000e+00
TDY2  SX3vh  1  3.650000e-01  1.910000e+00
TDY2  SX4vh  1  3.650000e-01  1.910000e+00
TDY2  SC1vh  1  3.940000e-01  1.290000e+00
TDY2  SC2vh  1  3.780000e-01  1.450000e+00
TDY2  SC3vh  1  3.780000e-01  1.450000e+00
TDY2  SC4vh  1  3.660000e-01  1.600000e+00
TDY2  SC5vh  1  3.650000e-01  1.750000e+00
TDY2  SC6vh  1  3.650000e-01  1.910000e+00
TDY2  SN1ah  1  3.650000e-01  1.750000e+00
TDY2  SN2ah  1  3.650000e-01  1.750000e+00
TDY2  SN3ah  1  3.650000e-01  1.750000e+00
TDY2  SN4ah  1  3.650000e-01  2.110000e+00
TDY2  SN5ah  1  3.650000e-01  2.110000e+00
TDY2  SN6ah  1  3.650000e-01  2.340000e+00
TDY2  SN6dr  1  3.650000e-01  2.830000e+00
TDY2  SN5dr  1  3.650000e-01  2.570000e+00
TDY2  SN4dr  1  3.650000e-01  2.570000e+00
TDY2  SN3dr  1  3.650000e-01  2.110000e+00
TDY2  SN2dr  1  3.650000e-01  2.110000e+00
TDY2  SN1dr  1  3.650000e-01  2.110000e+00
TDY2  SP1ar  1  3.650000e-01  2.340000e+00
TDY2  SX1er  1  3.940000e-01  1.290000e+00
TDY2  SX2er  1  3.780000e-01  1.450000e+00
TDY2  SX3er  1  3.660000e-01  1.600000e+00
TDY2  SX4er  1  3.660000e-01  1.600000e+00
TDY2  SC1er  1  4.090000e-01  1.080000e+00
TDY2  SC2er  1  4.040000e-01  1.130000e+00
TDY2  SC3er  1  4.040000e-01  1.130000e+00
TDY2  SC4er  1  3.940000e-01  1.290000e+00
TDY2  SC5er  1  3.780000e-01  1.450000e+00
TDY2  SC6er  1  3.660000e-01  1.600000e+00
TDY2  SX1vr  1  3.660000e-01  1.600000e+00
TDY2  SX2vr  1  3.650000e-01  1.750000e+00
TDY2  SX3vr  1  3.650000e-01  1.910000e+00
TDY2  SX4vr  1  3.650000e-01  1.910000e+00
TDY2  SC1vr  1  3.940000e-01  1.290000e+00
TDY2  SC2vr  1  3.780000e-01  1.450000e+00
TDY2  SC3vr  1  3.780000e-01  1.450000e+00
TDY2  SC4vr  1  3.660000e-01  1.600000e+00
TDY2  SC5vr  1  3.650000e-01  1.750000e+00
TDY2  SC6vr  1  3.650000e-01  1.910000e+00
TDY2  SN1ar  1  3.650000e-01  1.750000e+00
TDY2  SN2ar  1  3.650000e-01  1.750000e+00
TDY2  SN3ar  1  3.650000e-01  1.750000e+00
TDY2  SN4ar  1  3.650000e-01  2.110000e+00
TDY2  SN5ar  1  3.650000e-01  2.110000e+00
TDY2  SN6ar  1  3.650000e-01  2.340000e+00
TDY2  SN6a  1  3.650000e-01  2.340000e+00
TDY2  SN5a  1  3.650000e-01  2.110000e+00
TDY2  SN4a  1  3.650000e-01  2.110000e+00
TDY2  SN3a  1  3.650000e-01  1.750000e+00
TDY2  SN2a  1  3.650000e-01  1.750000e+00
TDY2  SN1a  1  3.650000e-01  1.750000e+00
TDY2  SN6d  1  3.650000e-01  2.830000e+00
TDY2  SN5d  1  3.650000e-01  2.570000e+00
TDY2  SN4d  1  3.650000e-01  2.570000e+00
TDY2  SN3d  1  3.650000e-01  2.110000e+00
TDY2  SN2d  1  3.650000e-01  2.110000e+00
TDY2  SN1d  1  3.650000e-01  2.110000e+00
TDY2  SC6v  1  3.650000e-01  1.910000e+00
TDY2  SC5v  1  3.650000e-01  1.750000e+00
TDY2  SC4v  1  3.660000e-01  1.600000e+00
TDY2  SC3v  1  3.780000e-01  1.450000e+00
TDY2  SC2v  1  3.780000e-01  1.450000e+00
TDY2  SC1v  1  3.940000e-01  1.290000e+00
TDY2  SX4v  1  3.650000e-01  1.910000e+00
TDY2  SX3v  1  3.650000e-01  1.910000e+00
TDY2  SX2v  1  3.650000e-01  1.750000e+00
TDY2  SX1v  1  3.660000e-01  1.600000e+00
TDY2  SC6e  1  3.660000e-01  1.600000e+00
TDY2  SC5e  1  3.780000e-01  1.450000e+00
TDY2  SC4e  1  3.940000e-01  1.290000e+00
TDY2  SC3e  1  4.040000e-01  1.130000e+00
TDY2  SC2e  1  4.040000e-01  1.130000e+00
TDY2  SC1e  1  4.090000e-01  1.080000e+00
TDY2  SX4e  1  3.660000e-01  1.600000e+00
TDY2  SX3e  1  3.660000e-01  1.600000e+00
TDY2  SX2e  1  3.780000e-01  1.450000e+00
TDY2  SX1e  1  3.940000e-01  1.290000e+00
TDY2  SN6q  1  3.650000e-01  3.100000e+00
TDY2  SN5q  1  3.650000e-01  2.830000e+00
TDY2  SN4q  1  3.650000e-01  2.830000e+00
TDY2  SN3q  1  3.650000e-01  2.340000e+00
TDY2  SN2q  1  3.650000e-01  2.340000e+00
TDY2  SN1q  1  3.650000e-01  2.340000e+00
TDY2  SC6q  1  3.650000e-01  2.110000e+00
TDY2  SC5q  1  3.650000e-01  1.910000e+00
TDY2  SC4q  1  3.650000e-01  1.750000e+00
TDY2  SC3q  1  3.660000e-01  1.600000e+00
TDY2  SC2q  1  3.660000e-01  1.600000e+00
TDY2  SC1q  1  3.780000e-01  1.450000e+00
TDY2  SX4q  1  3.650000e-01  2.110000e+00
TDY2  SX3q  1  3.650000e-01  2.110000e+00
TDY2  SX2q  1  3.650000e-01  1.910000e+00
TDY2  SX1q  1  3.650000e-01  1.750000e+00
TDY2  SN6h  1  3.650000e-01  2.570000e+00
TDY2  SN5h  1  3.650000e-01  2.340000e+00
TDY2  SN4h  1  3.650000e-01  2.340000e+00
TDY2  SN3h  1  3.650000e-01  1.910000e+00
TDY2  SN2h  1  3.650000e-01  1.910000e+00
TDY2  SN1h  1  3.650000e-01  1.910000e+00
TDY2  SC6h  1  3.650000e-01  1.750000e+00
TDY2  SC5h  1  3.660000e-01  1.600000e+00
TDY2  SC4h  1  3.780000e-01  1.450000e+00
TDY2  SC3h  1  3.940000e-01  1.290000e+00
TDY2  SC2h  1  3.940000e-01  1.290000e+00
TDY2  SC1h  1  4.040000e-01  1.130000e+00
TDY2  SX4h  1  3.650000e-01  1.750000e+00
TDY2  SX3h  1  3.650000e-01  1.750000e+00
TDY2  SX2h  1  3.660000e-01  1.600000e+00
TDY2  SX1h  1  3.780000e-01  1.450000e+00
TDY2  SN6r  1  3.650000e-01  2.570000e+00
TDY2  SN5r  1  3.650000e-01  2.340000e+00
TDY2  SN4r  1  3.650000e-01  2.340000e+00
TDY2  SN3r  1  3.650000e-01  1.910000e+00
TDY2  SN2r  1  3.650000e-01  1.910000e+00
TDY2  SN1r  1  3.650000e-01  1.910000e+00
TDY2  SC6r  1  3.650000e-01  1.750000e+00
TDY2  SC5r  1  3.660000e-01  1.600000e+00
TDY2  SC4r  1  3.780000e-01  1.450000e+00
TDY2  SC3r  1  3.940000e-01  1.290000e+00
TDY2  SC2r  1  3.940000e-01  1.290000e+00
TDY2  SC1r  1  4.040000e-01  1.130000e+00
TDY2  SX4r  1  3.650000e-01  1.750000e+00
TDY2  SX3r  1  3.650000e-01  1.750000e+00
TDY2  SX2r  1  3.660000e-01  1.600000e+00
TDY2  SX1r  1  3.780000e-01  1.450000e+00
P6a  TDY2  1  3.950000e-01  2.940000e+00
P5a  TDY2  1  3.950000e-01  2.700000e+00
P4a  TDY2  1  3.950000e-01  2.700000e+00
P3a  TDY2  1  3.950000e-01  2.700000e+00
P2a  TDY2  1  3.950000e-01  2.700000e+00
P1a  TDY2  1  3.950000e-01  2.700000e+00
P6d  TDY2  1  3.950000e-01  3.430000e+00
P5d  TDY2  1  3.950000e-01  3.190000e+00
P4d  TDY2  1  3.950000e-01  3.190000e+00
P3d  TDY2  1  3.950000e-01  3.190000e+00
P2d  TDY2  1  3.950000e-01  3.190000e+00
P1d  TDY2  1  3.950000e-01  3.190000e+00
P6q  TDY2  1  3.950000e-01  3.670000e+00
P5q  TDY2  1  3.950000e-01  3.430000e+00
P4q  TDY2  1  3.950000e-01  3.430000e+00
P3q  TDY2  1  3.950000e-01  3.430000e+00
P2q  TDY2  1  3.950000e-01  3.430000e+00
P1q  TDY2  1  3.950000e-01  3.430000e+00
P6dq  TDY2  1  3.950000e-01  3.910000e+00
P5dq  TDY2  1  3.950000e-01  3.670000e+00
P4dq  TDY2  1  3.950000e-01  3.670000e+00
P3dq  TDY2  1  3.950000e-01  3.670000e+00
P2dq  TDY2  1  3.950000e-01  3.670000e+00
P1dq  TDY2  1  3.950000e-01  3.670000e+00
P6aq  TDY2  1  3.950000e-01  3.430000e+00
P5aq  TDY2  1  3.950000e-01  3.190000e+00
P4aq  TDY2  1  3.950000e-01  3.190000e+00
P3aq  TDY2  1  3.950000e-01  3.190000e+00
P2aq  TDY2  1  3.950000e-01  3.190000e+00
P6h  TDY2  1  3.950000e-01  3.190000e+00
P5h  TDY2  1  3.950000e-01  2.940000e+00
P4h  TDY2  1  3.950000e-01  2.940000e+00
P3h  TDY2  1  3.950000e-01  2.940000e+00
P2h  TDY2  1  3.950000e-01  2.940000e+00
P1h  TDY2  1  3.950000e-01  2.940000e+00
P6dh  TDY2  1  3.950000e-01  3.430000e+00
P5dh  TDY2  1  3.950000e-01  3.190000e+00
P4dh  TDY2  1  3.950000e-01  3.190000e+00
P3dh  TDY2  1  3.950000e-01  3.190000e+00
P2dh  TDY2  1  3.950000e-01  3.190000e+00
P1dh  TDY2  1  3.950000e-01  3.190000e+00
P6ah  TDY2  1  3.950000e-01  2.940000e+00
P5ah  TDY2  1  3.950000e-01  2.700000e+00
P4ah  TDY2  1  3.950000e-01  2.700000e+00
P3ah  TDY2  1  3.950000e-01  2.700000e+00
P2ah  TDY2  1  3.950000e-01  2.700000e+00
P6r  TDY2  1  3.950000e-01  3.190000e+00
P5r  TDY2  1  3.950000e-01  2.940000e+00
P4r  TDY2  1  3.950000e-01  2.940000e+00
P3r  TDY2  1  3.950000e-01  2.940000e+00
P2r  TDY2  1  3.950000e-01  2.940000e+00
P1r  TDY2  1  3.950000e-01  2.940000e+00
P6dr  TDY2  1  3.950000e-01  3.430000e+00
P5dr  TDY2  1  3.950000e-01  3.190000e+00
P4dr  TDY2  1  3.950000e-01  3.190000e+00
P3dr  TDY2  1  3.950000e-01  3.190000e+00
P2dr  TDY2  1  3.950000e-01  3.190000e+00
P1dr  TDY2  1  3.950000e-01  3.190000e+00
P6ar  TDY2  1  3.950000e-01  2.940000e+00
P5ar  TDY2  1  3.950000e-01  2.700000e+00
P4ar  TDY2  1  3.950000e-01  2.700000e+00
P3ar  TDY2  1  3.950000e-01  2.700000e+00
P2ar  TDY2  1  3.950000e-01  2.700000e+00
TDY2  N6a  1  3.950000e-01  2.700000e+00
TDY2  N5a  1  3.950000e-01  2.500000e+00
TDY2  N4a  1  3.950000e-01  2.500000e+00
TDY2  N3a  1  3.950000e-01  2.110000e+00
TDY2  N2a  1  3.950000e-01  2.110000e+00
TDY2  N1a  1  3.950000e-01  2.110000e+00
TDY2  N6d  1  3.950000e-01  3.190000e+00
TDY2  N5d  1  3.950000e-01  2.940000e+00
TDY2  N4d  1  3.950000e-01  2.940000e+00
TDY2  N3d  1  3.950000e-01  2.500000e+00
TDY2  N2d  1  3.950000e-01  2.500000e+00
TDY2  N1d  1  3.950000e-01  2.500000e+00
TDY2  C6v  1  3.950000e-01  2.310000e+00
TDY2  C5v  1  3.950000e-01  2.110000e+00
TDY2  C4v  1  3.950000e-01  1.850000e+00
TDY2  C3v  1  3.950000e-01  1.670000e+00
TDY2  C2v  1  3.950000e-01  1.670000e+00
TDY2  C1v  1  3.980000e-01  1.450000e+00
TDY2  X4v  1  3.950000e-01  2.310000e+00
TDY2  X3v  1  3.950000e-01  2.310000e+00
TDY2  X2v  1  3.950000e-01  2.110000e+00
TDY2  X1v  1  3.950000e-01  1.850000e+00
TDY2  C6e  1  3.950000e-01  1.850000e+00
TDY2  C5e  1  3.950000e-01  1.670000e+00
TDY2  C4e  1  3.980000e-01  1.450000e+00
TDY2  C3e  1  3.990000e-01  1.180000e+00
TDY2  C2e  1  3.990000e-01  1.180000e+00
TDY2  C1e  1  4.010000e-01  9.830000e-01
TDY2  X4e  1  3.950000e-01  1.850000e+00
TDY2  X3e  1  3.950000e-01  1.850000e+00
TDY2  X2e  1  3.950000e-01  1.670000e+00
TDY2  X1e  1  3.980000e-01  1.450000e+00
TDY2  N6q  1  3.950000e-01  3.430000e+00
TDY2  N5q  1  3.950000e-01  3.190000e+00
TDY2  N4q  1  3.950000e-01  3.190000e+00
TDY2  N3q  1  3.950000e-01  2.700000e+00
TDY2  N2q  1  3.950000e-01  2.700000e+00
TDY2  N1q  1  3.950000e-01  2.700000e+00
TDY2  C6q  1  3.950000e-01  2.500000e+00
TDY2  C5q  1  3.950000e-01  2.310000e+00
TDY2  C4q  1  3.950000e-01  2.110000e+00
TDY2  C3q  1  3.950000e-01  1.850000e+00
TDY2  C2q  1  3.950000e-01  1.850000e+00
TDY2  C1q  1  3.950000e-01  1.670000e+00
TDY2  X4q  1  3.950000e-01  2.500000e+00
TDY2  X3q  1  3.950000e-01  2.500000e+00
TDY2  X2q  1  3.950000e-01  2.310000e+00
TDY2  X1q  1  3.950000e-01  2.110000e+00
TDY2  N6dq  1  3.950000e-01  3.670000e+00
TDY2  N5dq  1  3.950000e-01  3.430000e+00
TDY2  N4dq  1  3.950000e-01  3.430000e+00
TDY2  N3dq  1  3.950000e-01  2.940000e+00
TDY2  N2dq  1  3.950000e-01  2.940000e+00
TDY2  N1dq  1  3.950000e-01  2.940000e+00
TDY2  P1aq  1  3.950000e-01  3.190000e+00
TDY2  X1eq  1  3.950000e-01  1.850000e+00
TDY2  X2eq  1  3.950000e-01  2.110000e+00
TDY2  X3eq  1  3.950000e-01  2.310000e+00
TDY2  X4eq  1  3.950000e-01  2.310000e+00
TDY2  C1eq  1  3.980000e-01  1.450000e+00
TDY2  C2eq  1  3.950000e-01  1.670000e+00
TDY2  C3eq  1  3.950000e-01  1.670000e+00
TDY2  C4eq  1  3.950000e-01  1.850000e+00
TDY2  C5eq  1  3.950000e-01  2.110000e+00
TDY2  C6eq  1  3.950000e-01  2.310000e+00
TDY2  X1vq  1  3.950000e-01  2.310000e+00
TDY2  X2vq  1  3.950000e-01  2.500000e+00
TDY2  X3vq  1  3.950000e-01  2.700000e+00
TDY2  X4vq  1  3.950000e-01  2.700000e+00
TDY2  C1vq  1  3.950000e-01  1.850000e+00
TDY2  C2vq  1  3.950000e-01  2.110000e+00
TDY2  C3vq  1  3.950000e-01  2.110000e+00
TDY2  C4vq  1  3.950000e-01  2.310000e+00
TDY2  C5vq  1  3.950000e-01  2.500000e+00
TDY2  C6vq  1  3.950000e-01  2.700000e+00
TDY2  N1aq  1  3.950000e-01  2.500000e+00
TDY2  N2aq  1  3.950000e-01  2.500000e+00
TDY2  N3aq  1  3.950000e-01  2.500000e+00
TDY2  N4aq  1  3.950000e-01  2.940000e+00
TDY2  N5aq  1  3.950000e-01  2.940000e+00
TDY2  N6aq  1  3.950000e-01  3.190000e+00
TDY2  N6h  1  3.950000e-01  2.940000e+00
TDY2  N5h  1  3.950000e-01  2.700000e+00
TDY2  N4h  1  3.950000e-01  2.700000e+00
TDY2  N3h  1  3.950000e-01  2.310000e+00
TDY2  N2h  1  3.950000e-01  2.310000e+00
TDY2  N1h  1  3.950000e-01  2.310000e+00
TDY2  C6h  1  3.950000e-01  2.110000e+00
TDY2  C5h  1  3.950000e-01  1.850000e+00
TDY2  C4h  1  3.950000e-01  1.670000e+00
TDY2  C3h  1  3.980000e-01  1.450000e+00
TDY2  C2h  1  3.980000e-01  1.450000e+00
TDY2  C1h  1  3.990000e-01  1.180000e+00
TDY2  X4h  1  3.950000e-01  2.110000e+00
TDY2  X3h  1  3.950000e-01  2.110000e+00
TDY2  X2h  1  3.950000e-01  1.850000e+00
TDY2  X1h  1  3.950000e-01  1.670000e+00
TDY2  N6dh  1  3.950000e-01  3.190000e+00
TDY2  N5dh  1  3.950000e-01  2.940000e+00
TDY2  N4dh  1  3.950000e-01  2.940000e+00
TDY2  N3dh  1  3.950000e-01  2.500000e+00
TDY2  N2dh  1  3.950000e-01  2.500000e+00
TDY2  N1dh  1  3.950000e-01  2.500000e+00
TDY2  P1ah  1  3.950000e-01  2.700000e+00
TDY2  X1eh  1  3.980000e-01  1.450000e+00
TDY2  X2eh  1  3.950000e-01  1.670000e+00
TDY2  X3eh  1  3.950000e-01  1.850000e+00
TDY2  X4eh  1  3.950000e-01  1.850000e+00
TDY2  C1eh  1  4.010000e-01  9.830000e-01
TDY2  C2eh  1  3.990000e-01  1.180000e+00
TDY2  C3eh  1  3.990000e-01  1.180000e+00
TDY2  C4eh  1  3.980000e-01  1.450000e+00
TDY2  C5eh  1  3.950000e-01  1.670000e+00
TDY2  C6eh  1  3.950000e-01  1.850000e+00
TDY2  X1vh  1  3.950000e-01  1.850000e+00
TDY2  X2vh  1  3.950000e-01  2.110000e+00
TDY2  X3vh  1  3.950000e-01  2.310000e+00
TDY2  X4vh  1  3.950000e-01  2.310000e+00
TDY2  C1vh  1  3.980000e-01  1.450000e+00
TDY2  C2vh  1  3.950000e-01  1.670000e+00
TDY2  C3vh  1  3.950000e-01  1.670000e+00
TDY2  C4vh  1  3.950000e-01  1.850000e+00
TDY2  C5vh  1  3.950000e-01  2.110000e+00
TDY2  C6vh  1  3.950000e-01  2.310000e+00
TDY2  N1ah  1  3.950000e-01  2.110000e+00
TDY2  N2ah  1  3.950000e-01  2.110000e+00
TDY2  N3ah  1  3.950000e-01  2.110000e+00
TDY2  N4ah  1  3.950000e-01  2.500000e+00
TDY2  N5ah  1  3.950000e-01  2.500000e+00
TDY2  N6ah  1  3.950000e-01  2.700000e+00
TDY2  N6r  1  3.950000e-01  2.940000e+00
TDY2  N5r  1  3.950000e-01  2.700000e+00
TDY2  N4r  1  3.950000e-01  2.700000e+00
TDY2  N3r  1  3.950000e-01  2.310000e+00
TDY2  N2r  1  3.950000e-01  2.310000e+00
TDY2  N1r  1  3.950000e-01  2.310000e+00
TDY2  C6r  1  3.950000e-01  2.110000e+00
TDY2  C5r  1  3.950000e-01  1.850000e+00
TDY2  C4r  1  3.950000e-01  1.670000e+00
TDY2  C3r  1  3.980000e-01  1.450000e+00
TDY2  C2r  1  3.980000e-01  1.450000e+00
TDY2  C1r  1  3.990000e-01  1.180000e+00
TDY2  X4r  1  3.950000e-01  2.110000e+00
TDY2  X3r  1  3.950000e-01  2.110000e+00
TDY2  X2r  1  3.950000e-01  1.850000e+00
TDY2  X1r  1  3.950000e-01  1.670000e+00
TDY2  N6dr  1  3.950000e-01  3.190000e+00
TDY2  N5dr  1  3.950000e-01  2.940000e+00
TDY2  N4dr  1  3.950000e-01  2.940000e+00
TDY2  N3dr  1  3.950000e-01  2.500000e+00
TDY2  N2dr  1  3.950000e-01  2.500000e+00
TDY2  N1dr  1  3.950000e-01  2.500000e+00
TDY2  P1ar  1  3.950000e-01  2.700000e+00
TDY2  X1er  1  3.980000e-01  1.450000e+00
TDY2  X2er  1  3.950000e-01  1.670000e+00
TDY2  X3er  1  3.950000e-01  1.850000e+00
TDY2  X4er  1  3.950000e-01  1.850000e+00
TDY2  C1er  1  4.010000e-01  9.830000e-01
TDY2  C2er  1  3.990000e-01  1.180000e+00
TDY2  C3er  1  3.990000e-01  1.180000e+00
TDY2  C4er  1  3.980000e-01  1.450000e+00
TDY2  C5er  1  3.950000e-01  1.670000e+00
TDY2  C6er  1  3.950000e-01  1.850000e+00
TDY2  X1vr  1  3.950000e-01  1.850000e+00
TDY2  X2vr  1  3.950000e-01  2.110000e+00
TDY2  X3vr  1  3.950000e-01  2.310000e+00
TDY2  X4vr  1  3.950000e-01  2.310000e+00
TDY2  C1vr  1  3.980000e-01  1.450000e+00
TDY2  C2vr  1  3.950000e-01  1.670000e+00
TDY2  C3vr  1  3.950000e-01  1.670000e+00
TDY2  C4vr  1  3.950000e-01  1.850000e+00
TDY2  C5vr  1  3.950000e-01  2.110000e+00
TDY2  C6vr  1  3.950000e-01  2.310000e+00
TDY2  N1ar  1  3.950000e-01  2.110000e+00
TDY2  N2ar  1  3.950000e-01  2.110000e+00
TDY2  N3ar  1  3.950000e-01  2.110000e+00
TDY2  N4ar  1  3.950000e-01  2.500000e+00
TDY2  N5ar  1  3.950000e-01  2.500000e+00
TDY2  N6ar  1  3.950000e-01  2.700000e+00
TP6d  TDY2  1  3.400000e-01  3.220000e+00
TP5d  TDY2  1  3.400000e-01  2.990000e+00
TP4d  TDY2  1  3.400000e-01  2.990000e+00
TP3d  TDY2  1  3.400000e-01  2.990000e+00
TP2d  TDY2  1  3.400000e-01  2.990000e+00
TP1d  TDY2  1  3.400000e-01  2.990000e+00
TP6dq  TDY2  1  3.400000e-01  3.750000e+00
TP5dq  TDY2  1  3.400000e-01  3.470000e+00
TP4dq  TDY2  1  3.400000e-01  3.470000e+00
TP3dq  TDY2  1  3.400000e-01  3.470000e+00
TP2dq  TDY2  1  3.400000e-01  3.470000e+00
TP1dq  TDY2  1  3.400000e-01  3.470000e+00
TP6dh  TDY2  1  3.400000e-01  3.220000e+00
TP5dh  TDY2  1  3.400000e-01  2.990000e+00
TP4dh  TDY2  1  3.400000e-01  2.990000e+00
TP3dh  TDY2  1  3.400000e-01  2.990000e+00
TP2dh  TDY2  1  3.400000e-01  2.990000e+00
TP1dh  TDY2  1  3.400000e-01  2.990000e+00
TP6dr  TDY2  1  3.400000e-01  3.220000e+00
TP5dr  TDY2  1  3.400000e-01  2.990000e+00
TP4dr  TDY2  1  3.400000e-01  2.990000e+00
TP3dr  TDY2  1  3.400000e-01  2.990000e+00
TP2dr  TDY2  1  3.400000e-01  2.990000e+00
TP1dr  TDY2  1  3.400000e-01  2.990000e+00
TDY2  TN6d  1  3.400000e-01  2.990000e+00
TDY2  TN5d  1  3.400000e-01  2.740000e+00
TDY2  TN4d  1  3.400000e-01  2.740000e+00
TDY2  TN3d  1  3.400000e-01  2.280000e+00
TDY2  TN2d  1  3.400000e-01  2.280000e+00
TDY2  TN1d  1  3.400000e-01  2.280000e+00
TDY2  TN6dq  1  3.400000e-01  3.470000e+00
TDY2  TN5dq  1  3.400000e-01  3.220000e+00
TDY2  TN4dq  1  3.400000e-01  3.220000e+00
TDY2  TN3dq  1  3.400000e-01  2.740000e+00
TDY2  TN2dq  1  3.400000e-01  2.740000e+00
TDY2  TN1dq  1  3.400000e-01  2.740000e+00
TDY2  TN6dh  1  3.400000e-01  2.990000e+00
TDY2  TN5dh  1  3.400000e-01  2.740000e+00
TDY2  TN4dh  1  3.400000e-01  2.740000e+00
TDY2  TN3dh  1  3.400000e-01  2.280000e+00
TDY2  TN2dh  1  3.400000e-01  2.280000e+00
TDY2  TN1dh  1  3.400000e-01  2.280000e+00
TDY2  TN6dr  1  3.400000e-01  2.990000e+00
TDY2  TN5dr  1  3.400000e-01  2.740000e+00
TDY2  TN4dr  1  3.400000e-01  2.740000e+00
TDY2  TN3dr  1  3.400000e-01  2.280000e+00
TDY2  TN2dr  1  3.400000e-01  2.280000e+00
TDY2  TN1dr  1  3.400000e-01  2.280000e+00
TDY2  TC6v  1  3.400000e-01  1.510000e+00
TDY2  TC5v  1  3.400000e-01  1.230000e+00
TDY2  TC4v  1  3.520000e-01  1.050000e+00
TDY2  TC3v  1  3.660000e-01  9.350000e-01
TDY2  TC2v  1  3.660000e-01  9.350000e-01
TDY2  TC1v  1  3.850000e-01  8.550000e-01
TDY2  TX4v  1  3.400000e-01  1.510000e+00
TDY2  TX3v  1  3.400000e-01  1.510000e+00
TDY2  TX2v  1  3.400000e-01  1.230000e+00
TDY2  TX1v  1  3.520000e-01  1.050000e+00
TDY2  TX1vq  1  3.400000e-01  1.510000e+00
TDY2  TX2vq  1  3.400000e-01  1.770000e+00
TDY2  TX3vq  1  3.400000e-01  2.020000e+00
TDY2  TX4vq  1  3.400000e-01  2.020000e+00
TDY2  TC1vq  1  3.520000e-01  1.050000e+00
TDY2  TC2vq  1  3.400000e-01  1.230000e+00
TDY2  TC3vq  1  3.400000e-01  1.230000e+00
TDY2  TC4vq  1  3.400000e-01  1.510000e+00
TDY2  TC5vq  1  3.400000e-01  1.770000e+00
TDY2  TC6vq  1  3.400000e-01  2.020000e+00
TDY2  TX1vh  1  3.520000e-01  1.050000e+00
TDY2  TX2vh  1  3.400000e-01  1.230000e+00
TDY2  TX3vh  1  3.400000e-01  1.510000e+00
TDY2  TX4vh  1  3.400000e-01  1.510000e+00
TDY2  TC1vh  1  3.850000e-01  8.550000e-01
TDY2  TC2vh  1  3.660000e-01  9.350000e-01
TDY2  TC3vh  1  3.660000e-01  9.350000e-01
TDY2  TC4vh  1  3.520000e-01  1.050000e+00
TDY2  TC5vh  1  3.400000e-01  1.230000e+00
TDY2  TC6vh  1  3.400000e-01  1.510000e+00
TDY2  TX1vr  1  3.520000e-01  1.050000e+00
TDY2  TX2vr  1  3.400000e-01  1.230000e+00
TDY2  TX3vr  1  3.400000e-01  1.510000e+00
TDY2  TX4vr  1  3.400000e-01  1.510000e+00
TDY2  TC1vr  1  3.850000e-01  8.550000e-01
TDY2  TC2vr  1  3.660000e-01  9.350000e-01
TDY2  TC3vr  1  3.660000e-01  9.350000e-01
TDY2  TC4vr  1  3.520000e-01  1.050000e+00
TDY2  TC5vr  1  3.400000e-01  1.230000e+00
TDY2  TC6vr  1  3.400000e-01  1.510000e+00
TDY2  TC6e  1  3.520000e-01  1.050000e+00
TDY2  TC5e  1  3.660000e-01  9.350000e-01
TDY2  TC4e  1  3.850000e-01  8.550000e-01
TDY2  TC3e  1  4.110000e-01  8.010000e-01
TDY2  TC2e  1  4.110000e-01  8.010000e-01
TDY2  TC1e  1  4.240000e-01  7.760000e-01
TDY2  TX4e  1  3.520000e-01  1.050000e+00
TDY2  TX3e  1  3.520000e-01  1.050000e+00
TDY2  TX2e  1  3.660000e-01  9.350000e-01
TDY2  TX1e  1  3.850000e-01  8.550000e-01
TDY2  TX1eq  1  3.520000e-01  1.050000e+00
TDY2  TX2eq  1  3.400000e-01  1.230000e+00
TDY2  TX3eq  1  3.400000e-01  1.510000e+00
TDY2  TX4eq  1  3.400000e-01  1.510000e+00
TDY2  TC1eq  1  3.850000e-01  8.550000e-01
TDY2  TC2eq  1  3.660000e-01  9.350000e-01
TDY2  TC3eq  1  3.660000e-01  9.350000e-01
TDY2  TC4eq  1  3.520000e-01  1.050000e+00
TDY2  TC5eq  1  3.400000e-01  1.230000e+00
TDY2  TC6eq  1  3.400000e-01  1.510000e+00
TDY2  TX1eh  1  3.850000e-01  8.550000e-01
TDY2  TX2eh  1  3.660000e-01  9.350000e-01
TDY2  TX3eh  1  3.520000e-01  1.050000e+00
TDY2  TX4eh  1  3.520000e-01  1.050000e+00
TDY2  TC1eh  1  4.240000e-01  7.760000e-01
TDY2  TC2eh  1  4.110000e-01  8.010000e-01
TDY2  TC3eh  1  4.110000e-01  8.010000e-01
TDY2  TC4eh  1  3.850000e-01  8.550000e-01
TDY2  TC5eh  1  3.660000e-01  9.350000e-01
TDY2  TC6eh  1  3.520000e-01  1.050000e+00
TDY2  TX1er  1  3.850000e-01  8.550000e-01
TDY2  TX2er  1  3.660000e-01  9.350000e-01
TDY2  TX3er  1  3.520000e-01  1.050000e+00
TDY2  TX4er  1  3.520000e-01  1.050000e+00
TDY2  TC1er  1  4.240000e-01  7.760000e-01
TDY2  TC2er  1  4.110000e-01  8.010000e-01
TDY2  TC3er  1  4.110000e-01  8.010000e-01
TDY2  TC4er  1  3.850000e-01  8.550000e-01
TDY2  TC5er  1  3.660000e-01  9.350000e-01
TDY2  TC6er  1  3.520000e-01  1.050000e+00
TDY2  TP1aq  1  3.400000e-01  2.500000e+00
TDY2  TN1aq  1  3.400000e-01  1.770000e+00
TDY2  TN2aq  1  3.400000e-01  1.770000e+00
TDY2  TN3aq  1  3.400000e-01  1.770000e+00
TDY2  TN4aq  1  3.400000e-01  2.280000e+00
TDY2  TN5aq  1  3.400000e-01  2.280000e+00
TDY2  TN6aq  1  3.400000e-01  2.500000e+00
TDY2  TP1ah  1  3.400000e-01  2.020000e+00
TDY2  TN1ah  1  3.400000e-01  1.230000e+00
TDY2  TN2ah  1  3.400000e-01  1.230000e+00
TDY2  TN3ah  1  3.400000e-01  1.230000e+00
TDY2  TN4ah  1  3.400000e-01  1.770000e+00
TDY2  TN5ah  1  3.400000e-01  1.770000e+00
TDY2  TN6ah  1  3.400000e-01  2.020000e+00
TDY2  TP1ar  1  3.400000e-01  2.020000e+00
TDY2  TN1ar  1  3.400000e-01  1.230000e+00
TDY2  TN2ar  1  3.400000e-01  1.230000e+00
TDY2  TN3ar  1  3.400000e-01  1.230000e+00
TDY2  TN4ar  1  3.400000e-01  1.770000e+00
TDY2  TN5ar  1  3.400000e-01  1.770000e+00
TDY2  TN6ar  1  3.400000e-01  2.020000e+00
TP6a  TDY2  1  3.400000e-01  2.280000e+00
TP5a  TDY2  1  3.400000e-01  2.020000e+00
TP4a  TDY2  1  3.400000e-01  2.020000e+00
TP3a  TDY2  1  3.400000e-01  2.020000e+00
TP2a  TDY2  1  3.400000e-01  2.020000e+00
TDY2  TP1a  1  3.400000e-01  2.020000e+00
TDY2  TN6a  1  3.400000e-01  2.020000e+00
TDY2  TN5a  1  3.400000e-01  1.770000e+00
TDY2  TN4a  1  3.400000e-01  1.770000e+00
TDY2  TN3a  1  3.400000e-01  1.230000e+00
TDY2  TN2a  1  3.400000e-01  1.230000e+00
TDY2  TN1a  1  3.400000e-01  1.230000e+00
TP6q  TDY2  1  3.400000e-01  2.990000e+00
TP5q  TDY2  1  3.400000e-01  2.740000e+00
TP4q  TDY2  1  3.400000e-01  2.740000e+00
TP3q  TDY2  1  3.400000e-01  2.740000e+00
TP2q  TDY2  1  3.400000e-01  2.740000e+00
TP1q  TDY2  1  3.400000e-01  2.740000e+00
TDY2  TN6q  1  3.400000e-01  2.740000e+00
TDY2  TN5q  1  3.400000e-01  2.500000e+00
TDY2  TN4q  1  3.400000e-01  2.500000e+00
TDY2  TN3q  1  3.400000e-01  2.020000e+00
TDY2  TN2q  1  3.400000e-01  2.020000e+00
TDY2  TN1q  1  3.400000e-01  2.020000e+00
TDY2  TC6q  1  3.400000e-01  1.770000e+00
TDY2  TC5q  1  3.400000e-01  1.510000e+00
TDY2  TC4q  1  3.400000e-01  1.230000e+00
TDY2  TC3q  1  3.520000e-01  1.050000e+00
TDY2  TC2q  1  3.520000e-01  1.050000e+00
TDY2  TC1q  1  3.660000e-01  9.350000e-01
TDY2  TX4q  1  3.400000e-01  1.770000e+00
TDY2  TX3q  1  3.400000e-01  1.770000e+00
TDY2  TX2q  1  3.400000e-01  1.510000e+00
TDY2  TX1q  1  3.400000e-01  1.230000e+00
TP6h  TDY2  1  3.400000e-01  2.500000e+00
TP5h  TDY2  1  3.400000e-01  2.280000e+00
TP4h  TDY2  1  3.400000e-01  2.280000e+00
TP3h  TDY2  1  3.400000e-01  2.280000e+00
TP2h  TDY2  1  3.400000e-01  2.280000e+00
TP1h  TDY2  1  3.400000e-01  2.280000e+00
TDY2  TN6h  1  3.400000e-01  2.280000e+00
TDY2  TN5h  1  3.400000e-01  2.020000e+00
TDY2  TN4h  1  3.400000e-01  2.020000e+00
TDY2  TN3h  1  3.400000e-01  1.510000e+00
TDY2  TN2h  1  3.400000e-01  1.510000e+00
TDY2  TN1h  1  3.400000e-01  1.510000e+00
TDY2  TC6h  1  3.400000e-01  1.230000e+00
TDY2  TC5h  1  3.520000e-01  1.050000e+00
TDY2  TC4h  1  3.660000e-01  9.350000e-01
TDY2  TC3h  1  3.850000e-01  8.550000e-01
TDY2  TC2h  1  3.850000e-01  8.550000e-01
TDY2  TC1h  1  4.110000e-01  8.010000e-01
TDY2  TX4h  1  3.400000e-01  1.230000e+00
TDY2  TX3h  1  3.400000e-01  1.230000e+00
TDY2  TX2h  1  3.520000e-01  1.050000e+00
TDY2  TX1h  1  3.660000e-01  9.350000e-01
TP6r  TDY2  1  3.400000e-01  2.500000e+00
TP5r  TDY2  1  3.400000e-01  2.280000e+00
TP4r  TDY2  1  3.400000e-01  2.280000e+00
TP3r  TDY2  1  3.400000e-01  2.280000e+00
TP2r  TDY2  1  3.400000e-01  2.280000e+00
TP1r  TDY2  1  3.400000e-01  2.280000e+00
TDY2  TN6r  1  3.400000e-01  2.280000e+00
TDY2  TN5r  1  3.400000e-01  2.020000e+00
TDY2  TN4r  1  3.400000e-01  2.020000e+00
TDY2  TN3r  1  3.400000e-01  1.510000e+00
TDY2  TN2r  1  3.400000e-01  1.510000e+00
TDY2  TN1r  1  3.400000e-01  1.510000e+00
TDY2  TC6r  1  3.400000e-01  1.230000e+00
TDY2  TC5r  1  3.520000e-01  1.050000e+00
TDY2  TC4r  1  3.660000e-01  9.350000e-01
TDY2  TC3r  1  3.850000e-01  8.550000e-01
TDY2  TC2r  1  3.850000e-01  8.550000e-01
TDY2  TC1r  1  4.110000e-01  8.010000e-01
TDY2  TX4r  1  3.400000e-01  1.230000e+00
TDY2  TX3r  1  3.400000e-01  1.230000e+00
TDY2  TX2r  1  3.520000e-01  1.050000e+00
TDY2  TX1r  1  3.660000e-01  9.350000e-01
TP6aq  TDY2  1  3.400000e-01  2.740000e+00
TP5aq  TDY2  1  3.400000e-01  2.500000e+00
TP4aq  TDY2  1  3.400000e-01  2.500000e+00
TP3aq  TDY2  1  3.400000e-01  2.500000e+00
TP2aq  TDY2  1  3.400000e-01  2.500000e+00
TP6ah  TDY2  1  3.400000e-01  2.280000e+00
TP5ah  TDY2  1  3.400000e-01  2.020000e+00
TP4ah  TDY2  1  3.400000e-01  2.020000e+00
TP3ah  TDY2  1  3.400000e-01  2.020000e+00
TP2ah  TDY2  1  3.400000e-01  2.020000e+00
TP6ar  TDY2  1  3.400000e-01  2.280000e+00
TP5ar  TDY2  1  3.400000e-01  2.020000e+00
TP4ar  TDY2  1  3.400000e-01  2.020000e+00
TP3ar  TDY2  1  3.400000e-01  2.020000e+00
TP2ar  TDY2  1  3.400000e-01  2.020000e+00
W  TDY2  1  3.850000e-01  3.100000e+00
SW  TDY2  1  3.750000e-01  2.430000e+00
TW  TDY2  1  3.450000e-01  2.370000e+00
TDY2  D  1  3.950000e-01  4.517000e+00
TDY2  SD  1  3.650000e-01  1.044900e+01
TDY2  TD  1  3.400000e-01  1.232200e+01
TDY2  Q5  1  3.950000e-01  4.027000e+00
TDY2  SQ5  1  3.650000e-01  5.329000e+00
TDY2  TQ5  1  3.400000e-01  7.299000e+00
TDY2  Q5p  1  3.950000e-01  4.587000e+00
TDY2  SQ5p  1  3.650000e-01  5.889000e+00
TDY2  TQ5p  1  3.400000e-01  8.059000e+00
TDY2  Q5n  1  3.950000e-01  3.787000e+00
TDY2  SQ5n  1  3.650000e-01  5.059000e+00
TDY2  TQ5n  1  3.400000e-01  7.049000e+00
TDY2  Q4  1  3.950000e-01  3.793000e+00
TDY2  SQ4  1  3.650000e-01  5.092000e+00
TDY2  TQ4  1  3.400000e-01  7.122000e+00
TDY2  Q4p  1  3.950000e-01  4.273000e+00
TDY2  SQ4p  1  3.650000e-01  5.632000e+00
TDY2  TQ4p  1  3.400000e-01  7.852000e+00
TDY2  Q4n  1  3.950000e-01  3.553000e+00
TDY2  SQ4n  1  3.650000e-01  4.822000e+00
TDY2  TQ4n  1  3.400000e-01  6.882000e+00
TDY2  Q3  1  3.950000e-01  3.572000e+00
TDY2  SQ3  1  3.650000e-01  4.928000e+00
TDY2  TQ3  1  3.400000e-01  7.115000e+00
TDY2  Q3p  1  3.950000e-01  4.052000e+00
TDY2  SQ3p  1  3.650000e-01  5.468000e+00
TDY2  TQ3p  1  3.400000e-01  7.835000e+00
TDY2  Q3n  1  3.950000e-01  3.322000e+00
TDY2  SQ3n  1  3.650000e-01  4.668000e+00
TDY2  TQ3n  1  3.400000e-01  6.895000e+00
TDY2  Q2  1  3.950000e-01  3.585000e+00
TDY2  SQ2  1  3.650000e-01  4.996000e+00
TDY2  TQ2  1  3.400000e-01  7.264000e+00
TDY2  Q2p  1  3.950000e-01  4.065000e+00
TDY2  SQ2p  1  3.650000e-01  5.536000e+00
TDY2  TQ2p  1  3.400000e-01  7.984000e+00
TDY2  Q2n  1  3.950000e-01  3.335000e+00
TDY2  SQ2n  1  3.650000e-01  4.736000e+00
TDY2  TQ2n  1  3.400000e-01  7.044000e+00
TDY2  Q1  1  3.950000e-01  3.831000e+00
TDY2  SQ1  1  3.650000e-01  5.302000e+00
TDY2  TQ1  1  3.400000e-01  7.585000e+00
TDY2  Q1p  1  3.950000e-01  4.311000e+00
TDY2  SQ1p  1  3.650000e-01  5.842000e+00
TDY2  TQ1p  1  3.400000e-01  8.315000e+00
TDY2  Q1n  1  3.950000e-01  3.591000e+00
TDY2  SQ1n  1  3.650000e-01  5.032000e+00
TDY2  TQ1n  1  3.400000e-01  7.345000e+00
P6  TDY3  1  3.950000e-01  3.430000e+00
SP6  TDY3  1  3.650000e-01  3.100000e+00
TP6  TDY3  1  3.400000e-01  2.740000e+00
P5  TDY3  1  3.950000e-01  3.190000e+00
SP5  TDY3  1  3.650000e-01  2.830000e+00
TP5  TDY3  1  3.400000e-01  2.500000e+00
P4  TDY3  1  3.950000e-01  3.190000e+00
SP4  TDY3  1  3.650000e-01  2.830000e+00
TP4  TDY3  1  3.400000e-01  2.500000e+00
P3  TDY3  1  3.950000e-01  3.190000e+00
SP3  TDY3  1  3.650000e-01  2.830000e+00
TP3  TDY3  1  3.400000e-01  2.500000e+00
TDY3  P2  1  3.950000e-01  3.190000e+00
TDY3  SP2  1  3.650000e-01  2.830000e+00
TDY3  TP2  1  3.400000e-01  2.500000e+00
TDY3  P1  1  3.950000e-01  2.940000e+00
TDY3  SP1  1  3.650000e-01  2.570000e+00
TDY3  TP1  1  3.400000e-01  2.280000e+00
TDY3  N6  1  3.950000e-01  2.700000e+00
TDY3  SN6  1  3.650000e-01  2.340000e+00
TDY3  TN6  1  3.400000e-01  2.020000e+00
TDY3  N5  1  3.950000e-01  2.500000e+00
TDY3  SN5  1  3.650000e-01  2.110000e+00
TDY3  TN5  1  3.400000e-01  1.770000e+00
TDY3  N4  1  3.950000e-01  2.500000e+00
TDY3  SN4  1  3.650000e-01  2.110000e+00
TDY3  TN4  1  3.400000e-01  1.770000e+00
TDY3  N3  1  3.950000e-01  2.310000e+00
TDY3  SN3  1  3.650000e-01  1.910000e+00
TDY3  TN3  1  3.400000e-01  1.510000e+00
TDY3  N2  1  3.950000e-01  2.310000e+00
TDY3  SN2  1  3.650000e-01  1.910000e+00
TDY3  TN2  1  3.400000e-01  1.510000e+00
TDY3  N1  1  3.950000e-01  2.110000e+00
TDY3  SN1  1  3.650000e-01  1.750000e+00
TDY3  TN1  1  3.400000e-01  1.230000e+00
TDY3  C6  1  3.950000e-01  2.110000e+00
TDY3  SC6  1  3.650000e-01  1.750000e+00
TDY3  TC6  1  3.400000e-01  1.230000e+00
TDY3  C5  1  3.950000e-01  1.850000e+00
TDY3  SC5  1  3.660000e-01  1.600000e+00
TDY3  TC5  1  3.520000e-01  1.050000e+00
TDY3  C4  1  3.950000e-01  1.670000e+00
TDY3  SC4  1  3.780000e-01  1.450000e+00
TDY3  TC4  1  3.660000e-01  9.350000e-01
TDY3  C3  1  3.990000e-01  1.180000e+00
TDY3  SC3  1  4.040000e-01  1.130000e+00
TDY3  TC3  1  4.110000e-01  8.010000e-01
TDY3  C2  1  3.990000e-01  1.180000e+00
TDY3  SC2  1  4.040000e-01  1.130000e+00
TDY3  TC2  1  4.110000e-01  8.010000e-01
TDY3  C1  1  4.010000e-01  9.830000e-01
TDY3  SC1  1  4.090000e-01  1.080000e+00
TDY3  TC1  1  4.240000e-01  7.760000e-01
TDY3  X4  1  3.950000e-01  2.110000e+00
TDY3  SX4  1  3.650000e-01  1.750000e+00
TDY3  TX4  1  3.400000e-01  1.230000e+00
TDY3  X3  1  3.950000e-01  2.110000e+00
TDY3  SX3  1  3.650000e-01  1.750000e+00
TDY3  TX3  1  3.400000e-01  1.230000e+00
TDY3  X2  1  3.950000e-01  1.850000e+00
TDY3  SX2  1  3.660000e-01  1.600000e+00
TDY3  TX2  1  3.520000e-01  1.050000e+00
TDY3  X1  1  3.950000e-01  1.670000e+00
TDY3  SX1  1  3.780000e-01  1.450000e+00
TDY3  TX1  1  3.660000e-01  9.350000e-01
SP6d  TDY3  1  3.650000e-01  2.830000e+00
SP5d  TDY3  1  3.650000e-01  2.570000e+00
SP4d  TDY3  1  3.650000e-01  2.570000e+00
SP3d  TDY3  1  3.650000e-01  2.570000e+00
SP6a  TDY3  1  3.650000e-01  3.370000e+00
SP5a  TDY3  1  3.650000e-01  3.100000e+00
SP4a  TDY3  1  3.650000e-01  3.100000e+00
SP6q  TDY3  1  3.650000e-01  3.640000e+00
SP5q  TDY3  1  3.650000e-01  3.370000e+00
SP4q  TDY3  1  3.650000e-01  3.370000e+00
SP3q  TDY3  1  3.650000e-01  3.370000e+00
SP6h  TDY3  1  3.650000e-01  3.100000e+00
SP5h  TDY3  1  3.650000e-01  2.830000e+00
SP4h  TDY3  1  3.650000e-01  2.830000e+00
SP3h  TDY3  1  3.650000e-01  2.830000e+00
SP6r  TDY3  1  3.650000e-01  3.100000e+00
SP5r  TDY3  1  3.650000e-01  2.830000e+00
SP4r  TDY3  1  3.650000e-01  2.830000e+00
SP3r  TDY3  1  3.650000e-01  2.830000e+00
SP6dq  TDY3  1  3.650000e-01  3.370000e+00
SP5dq  TDY3  1  3.650000e-01  3.100000e+00
SP4dq  TDY3  1  3.650000e-01  3.100000e+00
SP4aq  TDY3  1  3.650000e-01  3.640000e+00
SP5aq  TDY3  1  3.650000e-01  3.640000e+00
SP6aq  TDY3  1  3.650000e-01  3.930000e+00
SP6dh  TDY3  1  3.650000e-01  2.830000e+00
SP5dh  TDY3  1  3.650000e-01  2.570000e+00
SP4dh  TDY3  1  3.650000e-01  2.570000e+00
SP4ah  TDY3  1  3.650000e-01  3.100000e+00
SP5ah  TDY3  1  3.650000e-01  3.100000e+00
SP6ah  TDY3  1  3.650000e-01  3.370000e+00
SP6dr  TDY3  1  3.650000e-01  2.830000e+00
SP5dr  TDY3  1  3.650000e-01  2.570000e+00
SP4dr  TDY3  1  3.650000e-01  2.570000e+00
SP4ar  TDY3  1  3.650000e-01  3.100000e+00
SP5ar  TDY3  1  3.650000e-01  3.100000e+00
SP6ar  TDY3  1  3.650000e-01  3.370000e+00
TDY3  SP3dq  1  3.650000e-01  3.100000e+00
TDY3  SX1eq  1  3.650000e-01  1.910000e+00
TDY3  SX2eq  1  3.650000e-01  2.110000e+00
TDY3  SX3eq  1  3.650000e-01  2.340000e+00
TDY3  SX4eq  1  3.650000e-01  2.340000e+00
TDY3  SC1eq  1  3.780000e-01  1.450000e+00
TDY3  SC2eq  1  3.660000e-01  1.600000e+00
TDY3  SC3eq  1  3.660000e-01  1.600000e+00
TDY3  SC4eq  1  3.650000e-01  1.910000e+00
TDY3  SC5eq  1  3.650000e-01  2.110000e+00
TDY3  SC6eq  1  3.650000e-01  2.340000e+00
TDY3  SX1vq  1  3.660000e-01  1.600000e+00
TDY3  SX2vq  1  3.650000e-01  1.750000e+00
TDY3  SX3vq  1  3.650000e-01  1.910000e+00
TDY3  SX4vq  1  3.650000e-01  1.910000e+00
TDY3  SC1vq  1  4.040000e-01  1.130000e+00
TDY3  SC2vq  1  3.940000e-01  1.290000e+00
TDY3  SC3vq  1  3.940000e-01  1.290000e+00
TDY3  SC4vq  1  3.660000e-01  1.600000e+00
TDY3  SC5vq  1  3.650000e-01  1.750000e+00
TDY3  SC6vq  1  3.650000e-01  1.910000e+00
TDY3  SN1aq  1  3.650000e-01  2.110000e+00
TDY3  SN2aq  1  3.650000e-01  2.570000e+00
TDY3  SN3aq  1  3.650000e-01  2.570000e+00
TDY3  SN4aq  1  3.650000e-01  2.830000e+00
TDY3  SN5aq  1  3.650000e-01  2.830000e+00
TDY3  SN6aq  1  3.650000e-01  3.100000e+00
TDY3  SP1aq  1  3.650000e-01  3.370000e+00
TDY3  SP2aq  1  3.650000e-01  3.640000e+00
TDY3  SP3aq  1  3.650000e-01  3.640000e+00
TDY3  SN1dq  1  3.650000e-01  2.110000e+00
TDY3  SN2dq  1  3.650000e-01  2.110000e+00
TDY3  SN3dq  1  3.650000e-01  2.110000e+00
TDY3  SN4dq  1  3.650000e-01  2.340000e+00
TDY3  SN5dq  1  3.650000e-01  2.340000e+00
TDY3  SN6dq  1  3.650000e-01  2.570000e+00
TDY3  SP1dq  1  3.650000e-01  2.830000e+00
TDY3  SP2dq  1  3.650000e-01  3.100000e+00
TDY3  SP3dh  1  3.650000e-01  2.570000e+00
TDY3  SX1eh  1  3.660000e-01  1.600000e+00
TDY3  SX2eh  1  3.650000e-01  1.750000e+00
TDY3  SX3eh  1  3.650000e-01  1.910000e+00
TDY3  SX4eh  1  3.650000e-01  1.910000e+00
TDY3  SC1eh  1  4.040000e-01  1.130000e+00
TDY3  SC2eh  1  3.940000e-01  1.290000e+00
TDY3  SC3eh  1  3.940000e-01  1.290000e+00
TDY3  SC4eh  1  3.660000e-01  1.600000e+00
TDY3  SC5eh  1  3.650000e-01  1.750000e+00
TDY3  SC6eh  1  3.650000e-01  1.910000e+00
TDY3  SX1vh  1  3.940000e-01  1.290000e+00
TDY3  SX2vh  1  3.780000e-01  1.450000e+00
TDY3  SX3vh  1  3.660000e-01  1.600000e+00
TDY3  SX4vh  1  3.660000e-01  1.600000e+00
TDY3  SC1vh  1  4.230000e-01  9.810000e-01
TDY3  SC2vh  1  4.090000e-01  1.080000e+00
TDY3  SC3vh  1  4.090000e-01  1.080000e+00
TDY3  SC4vh  1  3.940000e-01  1.290000e+00
TDY3  SC5vh  1  3.780000e-01  1.450000e+00
TDY3  SC6vh  1  3.660000e-01  1.600000e+00
TDY3  SN1ah  1  3.650000e-01  1.750000e+00
TDY3  SN2ah  1  3.650000e-01  2.110000e+00
TDY3  SN3ah  1  3.650000e-01  2.110000e+00
TDY3  SN4ah  1  3.650000e-01  2.340000e+00
TDY3  SN5ah  1  3.650000e-01  2.340000e+00
TDY3  SN6ah  1  3.650000e-01  2.570000e+00
TDY3  SP1ah  1  3.650000e-01  2.830000e+00
TDY3  SP2ah  1  3.650000e-01  3.100000e+00
TDY3  SP3ah  1  3.650000e-01  3.100000e+00
TDY3  SN1dh  1  3.650000e-01  1.750000e+00
TDY3  SN2dh  1  3.650000e-01  1.750000e+00
TDY3  SN3dh  1  3.650000e-01  1.750000e+00
TDY3  SN4dh  1  3.650000e-01  1.910000e+00
TDY3  SN5dh  1  3.650000e-01  1.910000e+00
TDY3  SN6dh  1  3.650000e-01  2.110000e+00
TDY3  SP1dh  1  3.650000e-01  2.340000e+00
TDY3  SP2dh  1  3.650000e-01  2.570000e+00
TDY3  SP3dr  1  3.650000e-01  2.570000e+00
TDY3  SX1er  1  3.660000e-01  1.600000e+00
TDY3  SX2er  1  3.650000e-01  1.750000e+00
TDY3  SX3er  1  3.650000e-01  1.910000e+00
TDY3  SX4er  1  3.650000e-01  1.910000e+00
TDY3  SC1er  1  4.040000e-01  1.130000e+00
TDY3  SC2er  1  3.940000e-01  1.290000e+00
TDY3  SC3er  1  3.940000e-01  1.290000e+00
TDY3  SC4er  1  3.660000e-01  1.600000e+00
TDY3  SC5er  1  3.650000e-01  1.750000e+00
TDY3  SC6er  1  3.650000e-01  1.910000e+00
TDY3  SX1vr  1  3.940000e-01  1.290000e+00
TDY3  SX2vr  1  3.780000e-01  1.450000e+00
TDY3  SX3vr  1  3.660000e-01  1.600000e+00
TDY3  SX4vr  1  3.660000e-01  1.600000e+00
TDY3  SC1vr  1  4.230000e-01  9.810000e-01
TDY3  SC2vr  1  4.090000e-01  1.080000e+00
TDY3  SC3vr  1  4.090000e-01  1.080000e+00
TDY3  SC4vr  1  3.940000e-01  1.290000e+00
TDY3  SC5vr  1  3.780000e-01  1.450000e+00
TDY3  SC6vr  1  3.660000e-01  1.600000e+00
TDY3  SN1ar  1  3.650000e-01  1.750000e+00
TDY3  SN2ar  1  3.650000e-01  2.110000e+00
TDY3  SN3ar  1  3.650000e-01  2.110000e+00
TDY3  SN4ar  1  3.650000e-01  2.340000e+00
TDY3  SN5ar  1  3.650000e-01  2.340000e+00
TDY3  SN6ar  1  3.650000e-01  2.570000e+00
TDY3  SP1ar  1  3.650000e-01  2.830000e+00
TDY3  SP2ar  1  3.650000e-01  3.100000e+00
TDY3  SP3ar  1  3.650000e-01  3.100000e+00
TDY3  SN1dr  1  3.650000e-01  1.750000e+00
TDY3  SN2dr  1  3.650000e-01  1.750000e+00
TDY3  SN3dr  1  3.650000e-01  1.750000e+00
TDY3  SN4dr  1  3.650000e-01  1.910000e+00
TDY3  SN5dr  1  3.650000e-01  1.910000e+00
TDY3  SN6dr  1  3.650000e-01  2.110000e+00
TDY3  SP1dr  1  3.650000e-01  2.340000e+00
TDY3  SP2dr  1  3.650000e-01  2.570000e+00
TDY3  SP2d  1  3.650000e-01  2.570000e+00
TDY3  SP1d  1  3.650000e-01  2.340000e+00
TDY3  SN6d  1  3.650000e-01  2.110000e+00
TDY3  SN5d  1  3.650000e-01  1.910000e+00
TDY3  SN4d  1  3.650000e-01  1.910000e+00
TDY3  SN3d  1  3.650000e-01  1.750000e+00
TDY3  SN2d  1  3.650000e-01  1.750000e+00
TDY3  SN1d  1  3.650000e-01  1.750000e+00
TDY3  SP3a  1  3.650000e-01  3.100000e+00
TDY3  SP2a  1  3.650000e-01  3.100000e+00
TDY3  SP1a  1  3.650000e-01  2.830000e+00
TDY3  SN6a  1  3.650000e-01  2.570000e+00
TDY3  SN5a  1  3.650000e-01  2.340000e+00
TDY3  SN4a  1  3.650000e-01  2.340000e+00
TDY3  SN3a  1  3.650000e-01  2.110000e+00
TDY3  SN2a  1  3.650000e-01  2.110000e+00
TDY3  SN1a  1  3.650000e-01  1.750000e+00
TDY3  SC6e  1  3.650000e-01  1.910000e+00
TDY3  SC5e  1  3.650000e-01  1.750000e+00
TDY3  SC4e  1  3.660000e-01  1.600000e+00
TDY3  SC3e  1  3.940000e-01  1.290000e+00
TDY3  SC2e  1  3.940000e-01  1.290000e+00
TDY3  SC1e  1  4.040000e-01  1.130000e+00
TDY3  SX4e  1  3.650000e-01  1.910000e+00
TDY3  SX3e  1  3.650000e-01  1.910000e+00
TDY3  SX2e  1  3.650000e-01  1.750000e+00
TDY3  SX1e  1  3.660000e-01  1.600000e+00
TDY3  SC6v  1  3.660000e-01  1.600000e+00
TDY3  SC5v  1  3.780000e-01  1.450000e+00
TDY3  SC4v  1  3.940000e-01  1.290000e+00
TDY3  SC3v  1  4.090000e-01  1.080000e+00
TDY3  SC2v  1  4.090000e-01  1.080000e+00
TDY3  SC1v  1  4.230000e-01  9.810000e-01
TDY3  SX4v  1  3.660000e-01  1.600000e+00
TDY3  SX3v  1  3.660000e-01  1.600000e+00
TDY3  SX2v  1  3.780000e-01  1.450000e+00
TDY3  SX1v  1  3.940000e-01  1.290000e+00
TDY3  SP2q  1  3.650000e-01  3.370000e+00
TDY3  SP1q  1  3.650000e-01  3.100000e+00
TDY3  SN6q  1  3.650000e-01  2.830000e+00
TDY3  SN5q  1  3.650000e-01  2.570000e+00
TDY3  SN4q  1  3.650000e-01  2.570000e+00
TDY3  SN3q  1  3.650000e-01  2.340000e+00
TDY3  SN2q  1  3.650000e-01  2.340000e+00
TDY3  SN1q  1  3.650000e-01  2.110000e+00
TDY3  SC6q  1  3.650000e-01  2.110000e+00
TDY3  SC5q  1  3.650000e-01  1.910000e+00
TDY3  SC4q  1  3.650000e-01  1.750000e+00
TDY3  SC3q  1  3.780000e-01  1.450000e+00
TDY3  SC2q  1  3.780000e-01  1.450000e+00
TDY3  SC1q  1  3.940000e-01  1.290000e+00
TDY3  SX4q  1  3.650000e-01  2.110000e+00
TDY3  SX3q  1  3.650000e-01  2.110000e+00
TDY3  SX2q  1  3.650000e-01  1.910000e+00
TDY3  SX1q  1  3.650000e-01  1.750000e+00
TDY3  SP2h  1  3.650000e-01  2.830000e+00
TDY3  SP1h  1  3.650000e-01  2.570000e+00
TDY3  SN6h  1  3.650000e-01  2.340000e+00
TDY3  SN5h  1  3.650000e-01  2.110000e+00
TDY3  SN4h  1  3.650000e-01  2.110000e+00
TDY3  SN3h  1  3.650000e-01  1.910000e+00
TDY3  SN2h  1  3.650000e-01  1.910000e+00
TDY3  SN1h  1  3.650000e-01  1.750000e+00
TDY3  SC6h  1  3.650000e-01  1.750000e+00
TDY3  SC5h  1  3.660000e-01  1.600000e+00
TDY3  SC4h  1  3.780000e-01  1.450000e+00
TDY3  SC3h  1  4.040000e-01  1.130000e+00
TDY3  SC2h  1  4.040000e-01  1.130000e+00
TDY3  SC1h  1  4.090000e-01  1.080000e+00
TDY3  SX4h  1  3.650000e-01  1.750000e+00
TDY3  SX3h  1  3.650000e-01  1.750000e+00
TDY3  SX2h  1  3.660000e-01  1.600000e+00
TDY3  SX1h  1  3.780000e-01  1.450000e+00
TDY3  SP2r  1  3.650000e-01  2.830000e+00
TDY3  SP1r  1  3.650000e-01  2.570000e+00
TDY3  SN6r  1  3.650000e-01  2.340000e+00
TDY3  SN5r  1  3.650000e-01  2.110000e+00
TDY3  SN4r  1  3.650000e-01  2.110000e+00
TDY3  SN3r  1  3.650000e-01  1.910000e+00
TDY3  SN2r  1  3.650000e-01  1.910000e+00
TDY3  SN1r  1  3.650000e-01  1.750000e+00
TDY3  SC6r  1  3.650000e-01  1.750000e+00
TDY3  SC5r  1  3.660000e-01  1.600000e+00
TDY3  SC4r  1  3.780000e-01  1.450000e+00
TDY3  SC3r  1  4.040000e-01  1.130000e+00
TDY3  SC2r  1  4.040000e-01  1.130000e+00
TDY3  SC1r  1  4.090000e-01  1.080000e+00
TDY3  SX4r  1  3.650000e-01  1.750000e+00
TDY3  SX3r  1  3.650000e-01  1.750000e+00
TDY3  SX2r  1  3.660000e-01  1.600000e+00
TDY3  SX1r  1  3.780000e-01  1.450000e+00
P6d  TDY3  1  3.950000e-01  3.190000e+00
P5d  TDY3  1  3.950000e-01  2.940000e+00
P4d  TDY3  1  3.950000e-01  2.940000e+00
P3d  TDY3  1  3.950000e-01  2.940000e+00
P6a  TDY3  1  3.950000e-01  3.670000e+00
P5a  TDY3  1  3.950000e-01  3.430000e+00
P4a  TDY3  1  3.950000e-01  3.430000e+00
P6q  TDY3  1  3.950000e-01  3.910000e+00
P5q  TDY3  1  3.950000e-01  3.670000e+00
P4q  TDY3  1  3.950000e-01  3.670000e+00
P3q  TDY3  1  3.950000e-01  3.670000e+00
P6dq  TDY3  1  3.950000e-01  3.670000e+00
P5dq  TDY3  1  3.950000e-01  3.430000e+00
P4dq  TDY3  1  3.950000e-01  3.430000e+00
P4aq  TDY3  1  3.950000e-01  3.910000e+00
P5aq  TDY3  1  3.950000e-01  3.910000e+00
P6aq  TDY3  1  3.950000e-01  4.230000e+00
P6h  TDY3  1  3.950000e-01  3.430000e+00
P5h  TDY3  1  3.950000e-01  3.190000e+00
P4h  TDY3  1  3.950000e-01  3.190000e+00
P3h  TDY3  1  3.950000e-01  3.190000e+00
P6dh  TDY3  1  3.950000e-01  3.190000e+00
P5dh  TDY3  1  3.950000e-01  2.940000e+00
P4dh  TDY3  1  3.950000e-01  2.940000e+00
P4ah  TDY3  1  3.950000e-01  3.430000e+00
P5ah  TDY3  1  3.950000e-01  3.430000e+00
P6ah  TDY3  1  3.950000e-01  3.670000e+00
P6r  TDY3  1  3.950000e-01  3.430000e+00
P5r  TDY3  1  3.950000e-01  3.190000e+00
P4r  TDY3  1  3.950000e-01  3.190000e+00
P3r  TDY3  1  3.950000e-01  3.190000e+00
P6dr  TDY3  1  3.950000e-01  3.190000e+00
P5dr  TDY3  1  3.950000e-01  2.940000e+00
P4dr  TDY3  1  3.950000e-01  2.940000e+00
P4ar  TDY3  1  3.950000e-01  3.430000e+00
P5ar  TDY3  1  3.950000e-01  3.430000e+00
P6ar  TDY3  1  3.950000e-01  3.670000e+00
TDY3  P2d  1  3.950000e-01  2.940000e+00
TDY3  P1d  1  3.950000e-01  2.700000e+00
TDY3  N6d  1  3.950000e-01  2.500000e+00
TDY3  N5d  1  3.950000e-01  2.310000e+00
TDY3  N4d  1  3.950000e-01  2.310000e+00
TDY3  N3d  1  3.950000e-01  2.110000e+00
TDY3  N2d  1  3.950000e-01  2.110000e+00
TDY3  N1d  1  3.950000e-01  2.110000e+00
TDY3  P3a  1  3.950000e-01  3.430000e+00
TDY3  P2a  1  3.950000e-01  3.430000e+00
TDY3  P1a  1  3.950000e-01  3.190000e+00
TDY3  N6a  1  3.950000e-01  2.940000e+00
TDY3  N5a  1  3.950000e-01  2.700000e+00
TDY3  N4a  1  3.950000e-01  2.700000e+00
TDY3  N3a  1  3.950000e-01  2.500000e+00
TDY3  N2a  1  3.950000e-01  2.500000e+00
TDY3  N1a  1  3.950000e-01  2.110000e+00
TDY3  C6e  1  3.950000e-01  2.310000e+00
TDY3  C5e  1  3.950000e-01  2.110000e+00
TDY3  C4e  1  3.950000e-01  1.850000e+00
TDY3  C3e  1  3.980000e-01  1.450000e+00
TDY3  C2e  1  3.980000e-01  1.450000e+00
TDY3  C1e  1  3.990000e-01  1.180000e+00
TDY3  X4e  1  3.950000e-01  2.310000e+00
TDY3  X3e  1  3.950000e-01  2.310000e+00
TDY3  X2e  1  3.950000e-01  2.110000e+00
TDY3  X1e  1  3.950000e-01  1.850000e+00
TDY3  C6v  1  3.950000e-01  1.850000e+00
TDY3  C5v  1  3.950000e-01  1.670000e+00
TDY3  C4v  1  3.980000e-01  1.450000e+00
TDY3  C3v  1  4.010000e-01  9.830000e-01
TDY3  C2v  1  4.010000e-01  9.830000e-01
TDY3  C1v  1  4.040000e-01  8.300000e-01
TDY3  X4v  1  3.950000e-01  1.850000e+00
TDY3  X3v  1  3.950000e-01  1.850000e+00
TDY3  X2v  1  3.950000e-01  1.670000e+00
TDY3  X1v  1  3.980000e-01  1.450000e+00
TDY3  P2q  1  3.950000e-01  3.670000e+00
TDY3  P1q  1  3.950000e-01  3.430000e+00
TDY3  N6q  1  3.950000e-01  3.190000e+00
TDY3  N5q  1  3.950000e-01  2.940000e+00
TDY3  N4q  1  3.950000e-01  2.940000e+00
TDY3  N3q  1  3.950000e-01  2.700000e+00
TDY3  N2q  1  3.950000e-01  2.700000e+00
TDY3  N1q  1  3.950000e-01  2.500000e+00
TDY3  C6q  1  3.950000e-01  2.500000e+00
TDY3  C5q  1  3.950000e-01  2.310000e+00
TDY3  C4q  1  3.950000e-01  2.110000e+00
TDY3  C3q  1  3.950000e-01  1.670000e+00
TDY3  C2q  1  3.950000e-01  1.670000e+00
TDY3  C1q  1  3.980000e-01  1.450000e+00
TDY3  X4q  1  3.950000e-01  2.500000e+00
TDY3  X3q  1  3.950000e-01  2.500000e+00
TDY3  X2q  1  3.950000e-01  2.310000e+00
TDY3  X1q  1  3.950000e-01  2.110000e+00
TDY3  P3dq  1  3.950000e-01  3.430000e+00
TDY3  X1eq  1  3.950000e-01  2.310000e+00
TDY3  X2eq  1  3.950000e-01  2.500000e+00
TDY3  X3eq  1  3.950000e-01  2.700000e+00
TDY3  X4eq  1  3.950000e-01  2.700000e+00
TDY3  C1eq  1  3.950000e-01  1.670000e+00
TDY3  C2eq  1  3.950000e-01  1.850000e+00
TDY3  C3eq  1  3.950000e-01  1.850000e+00
TDY3  C4eq  1  3.950000e-01  2.310000e+00
TDY3  C5eq  1  3.950000e-01  2.500000e+00
TDY3  C6eq  1  3.950000e-01  2.700000e+00
TDY3  X1vq  1  3.950000e-01  1.850000e+00
TDY3  X2vq  1  3.950000e-01  2.110000e+00
TDY3  X3vq  1  3.950000e-01  2.310000e+00
TDY3  X4vq  1  3.950000e-01  2.310000e+00
TDY3  C1vq  1  3.990000e-01  1.180000e+00
TDY3  C2vq  1  3.980000e-01  1.450000e+00
TDY3  C3vq  1  3.980000e-01  1.450000e+00
TDY3  C4vq  1  3.950000e-01  1.850000e+00
TDY3  C5vq  1  3.950000e-01  2.110000e+00
TDY3  C6vq  1  3.950000e-01  2.310000e+00
TDY3  N1aq  1  3.950000e-01  2.500000e+00
TDY3  N2aq  1  3.950000e-01  2.940000e+00
TDY3  N3aq  1  3.950000e-01  2.940000e+00
TDY3  N4aq  1  3.950000e-01  3.190000e+00
TDY3  N5aq  1  3.950000e-01  3.190000e+00
TDY3  N6aq  1  3.950000e-01  3.430000e+00
TDY3  P1aq  1  3.950000e-01  3.670000e+00
TDY3  P2aq  1  3.950000e-01  3.910000e+00
TDY3  P3aq  1  3.950000e-01  3.910000e+00
TDY3  N1dq  1  3.950000e-01  2.500000e+00
TDY3  N2dq  1  3.950000e-01  2.500000e+00
TDY3  N3dq  1  3.950000e-01  2.500000e+00
TDY3  N4dq  1  3.950000e-01  2.700000e+00
TDY3  N5dq  1  3.950000e-01  2.700000e+00
TDY3  N6dq  1  3.950000e-01  2.940000e+00
TDY3  P1dq  1  3.950000e-01  3.190000e+00
TDY3  P2dq  1  3.950000e-01  3.430000e+00
TDY3  P2h  1  3.950000e-01  3.190000e+00
TDY3  P1h  1  3.950000e-01  2.940000e+00
TDY3  N6h  1  3.950000e-01  2.700000e+00
TDY3  N5h  1  3.950000e-01  2.500000e+00
TDY3  N4h  1  3.950000e-01  2.500000e+00
TDY3  N3h  1  3.950000e-01  2.310000e+00
TDY3  N2h  1  3.950000e-01  2.310000e+00
TDY3  N1h  1  3.950000e-01  2.110000e+00
TDY3  C6h  1  3.950000e-01  2.110000e+00
TDY3  C5h  1  3.950000e-01  1.850000e+00
TDY3  C4h  1  3.950000e-01  1.670000e+00
TDY3  C3h  1  3.990000e-01  1.180000e+00
TDY3  C2h  1  3.990000e-01  1.180000e+00
TDY3  C1h  1  4.010000e-01  9.830000e-01
TDY3  X4h  1  3.950000e-01  2.110000e+00
TDY3  X3h  1  3.950000e-01  2.110000e+00
TDY3  X2h  1  3.950000e-01  1.850000e+00
TDY3  X1h  1  3.950000e-01  1.670000e+00
TDY3  P3dh  1  3.950000e-01  2.940000e+00
TDY3  X1eh  1  3.950000e-01  1.850000e+00
TDY3  X2eh  1  3.950000e-01  2.110000e+00
TDY3  X3eh  1  3.950000e-01  2.310000e+00
TDY3  X4eh  1  3.950000e-01  2.310000e+00
TDY3  C1eh  1  3.990000e-01  1.180000e+00
TDY3  C2eh  1  3.980000e-01  1.450000e+00
TDY3  C3eh  1  3.980000e-01  1.450000e+00
TDY3  C4eh  1  3.950000e-01  1.850000e+00
TDY3  C5eh  1  3.950000e-01  2.110000e+00
TDY3  C6eh  1  3.950000e-01  2.310000e+00
TDY3  X1vh  1  3.980000e-01  1.450000e+00
TDY3  X2vh  1  3.950000e-01  1.670000e+00
TDY3  X3vh  1  3.950000e-01  1.850000e+00
TDY3  X4vh  1  3.950000e-01  1.850000e+00
TDY3  C1vh  1  4.040000e-01  8.300000e-01
TDY3  C2vh  1  4.010000e-01  9.830000e-01
TDY3  C3vh  1  4.010000e-01  9.830000e-01
TDY3  C4vh  1  3.980000e-01  1.450000e+00
TDY3  C5vh  1  3.950000e-01  1.670000e+00
TDY3  C6vh  1  3.950000e-01  1.850000e+00
TDY3  N1ah  1  3.950000e-01  2.110000e+00
TDY3  N2ah  1  3.950000e-01  2.500000e+00
TDY3  N3ah  1  3.950000e-01  2.500000e+00
TDY3  N4ah  1  3.950000e-01  2.700000e+00
TDY3  N5ah  1  3.950000e-01  2.700000e+00
TDY3  N6ah  1  3.950000e-01  2.940000e+00
TDY3  P1ah  1  3.950000e-01  3.190000e+00
TDY3  P2ah  1  3.950000e-01  3.430000e+00
TDY3  P3ah  1  3.950000e-01  3.430000e+00
TDY3  N1dh  1  3.950000e-01  2.110000e+00
TDY3  N2dh  1  3.950000e-01  2.110000e+00
TDY3  N3dh  1  3.950000e-01  2.110000e+00
TDY3  N4dh  1  3.950000e-01  2.310000e+00
TDY3  N5dh  1  3.950000e-01  2.310000e+00
TDY3  N6dh  1  3.950000e-01  2.500000e+00
TDY3  P1dh  1  3.950000e-01  2.700000e+00
TDY3  P2dh  1  3.950000e-01  2.940000e+00
TDY3  P2r  1  3.950000e-01  3.190000e+00
TDY3  P1r  1  3.950000e-01  2.940000e+00
TDY3  N6r  1  3.950000e-01  2.700000e+00
TDY3  N5r  1  3.950000e-01  2.500000e+00
TDY3  N4r  1  3.950000e-01  2.500000e+00
TDY3  N3r  1  3.950000e-01  2.310000e+00
TDY3  N2r  1  3.950000e-01  2.310000e+00
TDY3  N1r  1  3.950000e-01  2.110000e+00
TDY3  C6r  1  3.950000e-01  2.110000e+00
TDY3  C5r  1  3.950000e-01  1.850000e+00
TDY3  C4r  1  3.950000e-01  1.670000e+00
TDY3  C3r  1  3.990000e-01  1.180000e+00
TDY3  C2r  1  3.990000e-01  1.180000e+00
TDY3  C1r  1  4.010000e-01  9.830000e-01
TDY3  X4r  1  3.950000e-01  2.110000e+00
TDY3  X3r  1  3.950000e-01  2.110000e+00
TDY3  X2r  1  3.950000e-01  1.850000e+00
TDY3  X1r  1  3.950000e-01  1.670000e+00
TDY3  P3dr  1  3.950000e-01  2.940000e+00
TDY3  X1er  1  3.950000e-01  1.850000e+00
TDY3  X2er  1  3.950000e-01  2.110000e+00
TDY3  X3er  1  3.950000e-01  2.310000e+00
TDY3  X4er  1  3.950000e-01  2.310000e+00
TDY3  C1er  1  3.990000e-01  1.180000e+00
TDY3  C2er  1  3.980000e-01  1.450000e+00
TDY3  C3er  1  3.980000e-01  1.450000e+00
TDY3  C4er  1  3.950000e-01  1.850000e+00
TDY3  C5er  1  3.950000e-01  2.110000e+00
TDY3  C6er  1  3.950000e-01  2.310000e+00
TDY3  X1vr  1  3.980000e-01  1.450000e+00
TDY3  X2vr  1  3.950000e-01  1.670000e+00
TDY3  X3vr  1  3.950000e-01  1.850000e+00
TDY3  X4vr  1  3.950000e-01  1.850000e+00
TDY3  C1vr  1  4.040000e-01  8.300000e-01
TDY3  C2vr  1  4.010000e-01  9.830000e-01
TDY3  C3vr  1  4.010000e-01  9.830000e-01
TDY3  C4vr  1  3.980000e-01  1.450000e+00
TDY3  C5vr  1  3.950000e-01  1.670000e+00
TDY3  C6vr  1  3.950000e-01  1.850000e+00
TDY3  N1ar  1  3.950000e-01  2.110000e+00
TDY3  N2ar  1  3.950000e-01  2.500000e+00
TDY3  N3ar  1  3.950000e-01  2.500000e+00
TDY3  N4ar  1  3.950000e-01  2.700000e+00
TDY3  N5ar  1  3.950000e-01  2.700000e+00
TDY3  N6ar  1  3.950000e-01  2.940000e+00
TDY3  P1ar  1  3.950000e-01  3.190000e+00
TDY3  P2ar  1  3.950000e-01  3.430000e+00
TDY3  P3ar  1  3.950000e-01  3.430000e+00
TDY3  N1dr  1  3.950000e-01  2.110000e+00
TDY3  N2dr  1  3.950000e-01  2.110000e+00
TDY3  N3dr  1  3.950000e-01  2.110000e+00
TDY3  N4dr  1  3.950000e-01  2.310000e+00
TDY3  N5dr  1  3.950000e-01  2.310000e+00
TDY3  N6dr  1  3.950000e-01  2.500000e+00
TDY3  P1dr  1  3.950000e-01  2.700000e+00
TDY3  P2dr  1  3.950000e-01  2.940000e+00
TDY3  TP3a  1  3.400000e-01  3.220000e+00
TDY3  TP2a  1  3.400000e-01  3.220000e+00
TDY3  TP1a  1  3.400000e-01  2.990000e+00
TDY3  TN6a  1  3.400000e-01  2.740000e+00
TDY3  TN5a  1  3.400000e-01  2.500000e+00
TDY3  TN4a  1  3.400000e-01  2.500000e+00
TDY3  TN3a  1  3.400000e-01  2.280000e+00
TDY3  TN2a  1  3.400000e-01  2.280000e+00
TDY3  TN1a  1  3.400000e-01  1.230000e+00
TDY3  TN1aq  1  3.400000e-01  2.280000e+00
TDY3  TN2aq  1  3.400000e-01  2.740000e+00
TDY3  TN3aq  1  3.400000e-01  2.740000e+00
TDY3  TN4aq  1  3.400000e-01  2.990000e+00
TDY3  TN5aq  1  3.400000e-01  2.990000e+00
TDY3  TN6aq  1  3.400000e-01  3.220000e+00
TDY3  TP1aq  1  3.400000e-01  3.470000e+00
TDY3  TP2aq  1  3.400000e-01  3.750000e+00
TDY3  TP3aq  1  3.400000e-01  3.750000e+00
TDY3  TN1ah  1  3.400000e-01  1.230000e+00
TDY3  TN2ah  1  3.400000e-01  2.280000e+00
TDY3  TN3ah  1  3.400000e-01  2.280000e+00
TDY3  TN4ah  1  3.400000e-01  2.500000e+00
TDY3  TN5ah  1  3.400000e-01  2.500000e+00
TDY3  TN6ah  1  3.400000e-01  2.740000e+00
TDY3  TP1ah  1  3.400000e-01  2.990000e+00
TDY3  TP2ah  1  3.400000e-01  3.220000e+00
TDY3  TP3ah  1  3.400000e-01  3.220000e+00
TDY3  TN1ar  1  3.400000e-01  1.230000e+00
TDY3  TN2ar  1  3.400000e-01  2.280000e+00
TDY3  TN3ar  1  3.400000e-01  2.280000e+00
TDY3  TN4ar  1  3.400000e-01  2.500000e+00
TDY3  TN5ar  1  3.400000e-01  2.500000e+00
TDY3  TN6ar  1  3.400000e-01  2.740000e+00
TDY3  TP1ar  1  3.400000e-01  2.990000e+00
TDY3  TP2ar  1  3.400000e-01  3.220000e+00
TDY3  TP3ar  1  3.400000e-01  3.220000e+00
TP6a  TDY3  1  3.400000e-01  3.470000e+00
TP5a  TDY3  1  3.400000e-01  3.220000e+00
TP4a  TDY3  1  3.400000e-01  3.220000e+00
TP4aq  TDY3  1  3.400000e-01  3.750000e+00
TP5aq  TDY3  1  3.400000e-01  3.750000e+00
TP6aq  TDY3  1  3.400000e-01  4.020000e+00
TP4ah  TDY3  1  3.400000e-01  3.220000e+00
TP5ah  TDY3  1  3.400000e-01  3.220000e+00
TP6ah  TDY3  1  3.400000e-01  3.470000e+00
TP4ar  TDY3  1  3.400000e-01  3.220000e+00
TP5ar  TDY3  1  3.400000e-01  3.220000e+00
TP6ar  TDY3  1  3.400000e-01  3.470000e+00
TDY3  TC6e  1  3.400000e-01  1.510000e+00
TDY3  TC5e  1  3.400000e-01  1.230000e+00
TDY3  TC4e  1  3.520000e-01  1.050000e+00
TDY3  TC3e  1  3.850000e-01  8.550000e-01
TDY3  TC2e  1  3.850000e-01  8.550000e-01
TDY3  TC1e  1  4.110000e-01  8.010000e-01
TDY3  TX4e  1  3.400000e-01  1.510000e+00
TDY3  TX3e  1  3.400000e-01  1.510000e+00
TDY3  TX2e  1  3.400000e-01  1.230000e+00
TDY3  TX1e  1  3.520000e-01  1.050000e+00
TDY3  TX1eq  1  3.400000e-01  1.510000e+00
TDY3  TX2eq  1  3.400000e-01  1.770000e+00
TDY3  TX3eq  1  3.400000e-01  2.020000e+00
TDY3  TX4eq  1  3.400000e-01  2.020000e+00
TDY3  TC1eq  1  3.660000e-01  9.350000e-01
TDY3  TC2eq  1  3.520000e-01  1.050000e+00
TDY3  TC3eq  1  3.520000e-01  1.050000e+00
TDY3  TC4eq  1  3.400000e-01  1.510000e+00
TDY3  TC5eq  1  3.400000e-01  1.770000e+00
TDY3  TC6eq  1  3.400000e-01  2.020000e+00
TDY3  TX1eh  1  3.520000e-01  1.050000e+00
TDY3  TX2eh  1  3.400000e-01  1.230000e+00
TDY3  TX3eh  1  3.400000e-01  1.510000e+00
TDY3  TX4eh  1  3.400000e-01  1.510000e+00
TDY3  TC1eh  1  4.110000e-01  8.010000e-01
TDY3  TC2eh  1  3.850000e-01  8.550000e-01
TDY3  TC3eh  1  3.850000e-01  8.550000e-01
TDY3  TC4eh  1  3.520000e-01  1.050000e+00
TDY3  TC5eh  1  3.400000e-01  1.230000e+00
TDY3  TC6eh  1  3.400000e-01  1.510000e+00
TDY3  TX1er  1  3.520000e-01  1.050000e+00
TDY3  TX2er  1  3.400000e-01  1.230000e+00
TDY3  TX3er  1  3.400000e-01  1.510000e+00
TDY3  TX4er  1  3.400000e-01  1.510000e+00
TDY3  TC1er  1  4.110000e-01  8.010000e-01
TDY3  TC2er  1  3.850000e-01  8.550000e-01
TDY3  TC3er  1  3.850000e-01  8.550000e-01
TDY3  TC4er  1  3.520000e-01  1.050000e+00
TDY3  TC5er  1  3.400000e-01  1.230000e+00
TDY3  TC6er  1  3.400000e-01  1.510000e+00
TDY3  TC6v  1  3.520000e-01  1.050000e+00
TDY3  TC5v  1  3.660000e-01  9.350000e-01
TDY3  TC4v  1  3.850000e-01  8.550000e-01
TDY3  TC3v  1  4.240000e-01  7.760000e-01
TDY3  TC2v  1  4.240000e-01  7.760000e-01
TDY3  TC1v  1  4.380000e-01  7.310000e-01
TDY3  TX4v  1  3.520000e-01  1.050000e+00
TDY3  TX3v  1  3.520000e-01  1.050000e+00
TDY3  TX2v  1  3.660000e-01  9.350000e-01
TDY3  TX1v  1  3.850000e-01  8.550000e-01
TDY3  TX1vq  1  3.520000e-01  1.050000e+00
TDY3  TX2vq  1  3.400000e-01  1.230000e+00
TDY3  TX3vq  1  3.400000e-01  1.510000e+00
TDY3  TX4vq  1  3.400000e-01  1.510000e+00
TDY3  TC1vq  1  4.110000e-01  8.010000e-01
TDY3  TC2vq  1  3.850000e-01  8.550000e-01
TDY3  TC3vq  1  3.850000e-01  8.550000e-01
TDY3  TC4vq  1  3.520000e-01  1.050000e+00
TDY3  TC5vq  1  3.400000e-01  1.230000e+00
TDY3  TC6vq  1  3.400000e-01  1.510000e+00
TDY3  TX1vh  1  3.850000e-01  8.550000e-01
TDY3  TX2vh  1  3.660000e-01  9.350000e-01
TDY3  TX3vh  1  3.520000e-01  1.050000e+00
TDY3  TX4vh  1  3.520000e-01  1.050000e+00
TDY3  TC1vh  1  4.380000e-01  7.310000e-01
TDY3  TC2vh  1  4.240000e-01  7.760000e-01
TDY3  TC3vh  1  4.240000e-01  7.760000e-01
TDY3  TC4vh  1  3.850000e-01  8.550000e-01
TDY3  TC5vh  1  3.660000e-01  9.350000e-01
TDY3  TC6vh  1  3.520000e-01  1.050000e+00
TDY3  TX1vr  1  3.850000e-01  8.550000e-01
TDY3  TX2vr  1  3.660000e-01  9.350000e-01
TDY3  TX3vr  1  3.520000e-01  1.050000e+00
TDY3  TX4vr  1  3.520000e-01  1.050000e+00
TDY3  TC1vr  1  4.380000e-01  7.310000e-01
TDY3  TC2vr  1  4.240000e-01  7.760000e-01
TDY3  TC3vr  1  4.240000e-01  7.760000e-01
TDY3  TC4vr  1  3.850000e-01  8.550000e-01
TDY3  TC5vr  1  3.660000e-01  9.350000e-01
TDY3  TC6vr  1  3.520000e-01  1.050000e+00
TDY3  TP3dq  1  3.400000e-01  2.740000e+00
TDY3  TN1dq  1  3.400000e-01  1.770000e+00
TDY3  TN2dq  1  3.400000e-01  1.770000e+00
TDY3  TN3dq  1  3.400000e-01  1.770000e+00
TDY3  TN4dq  1  3.400000e-01  2.020000e+00
TDY3  TN5dq  1  3.400000e-01  2.020000e+00
TDY3  TN6dq  1  3.400000e-01  2.280000e+00
TDY3  TP1dq  1  3.400000e-01  2.500000e+00
TDY3  TP2dq  1  3.400000e-01  2.740000e+00
TDY3  TP3dh  1  3.400000e-01  2.280000e+00
TDY3  TN1dh  1  3.400000e-01  1.230000e+00
TDY3  TN2dh  1  3.400000e-01  1.230000e+00
TDY3  TN3dh  1  3.400000e-01  1.230000e+00
TDY3  TN4dh  1  3.400000e-01  1.510000e+00
TDY3  TN5dh  1  3.400000e-01  1.510000e+00
TDY3  TN6dh  1  3.400000e-01  1.770000e+00
TDY3  TP1dh  1  3.400000e-01  2.020000e+00
TDY3  TP2dh  1  3.400000e-01  2.280000e+00
TDY3  TP3dr  1  3.400000e-01  2.280000e+00
TDY3  TN1dr  1  3.400000e-01  1.230000e+00
TDY3  TN2dr  1  3.400000e-01  1.230000e+00
TDY3  TN3dr  1  3.400000e-01  1.230000e+00
TDY3  TN4dr  1  3.400000e-01  1.510000e+00
TDY3  TN5dr  1  3.400000e-01  1.510000e+00
TDY3  TN6dr  1  3.400000e-01  1.770000e+00
TDY3  TP1dr  1  3.400000e-01  2.020000e+00
TDY3  TP2dr  1  3.400000e-01  2.280000e+00
TP6d  TDY3  1  3.400000e-01  2.500000e+00
TP5d  TDY3  1  3.400000e-01  2.280000e+00
TP4d  TDY3  1  3.400000e-01  2.280000e+00
TDY3  TP3d  1  3.400000e-01  2.280000e+00
TDY3  TP2d  1  3.400000e-01  2.280000e+00
TDY3  TP1d  1  3.400000e-01  2.020000e+00
TDY3  TN6d  1  3.400000e-01  1.770000e+00
TDY3  TN5d  1  3.400000e-01  1.510000e+00
TDY3  TN4d  1  3.400000e-01  1.510000e+00
TDY3  TN3d  1  3.400000e-01  1.230000e+00
TDY3  TN2d  1  3.400000e-01  1.230000e+00
TDY3  TN1d  1  3.400000e-01  1.230000e+00
TP6q  TDY3  1  3.400000e-01  3.220000e+00
TP5q  TDY3  1  3.400000e-01  2.990000e+00
TP4q  TDY3  1  3.400000e-01  2.990000e+00
TP3q  TDY3  1  3.400000e-01  2.990000e+00
TDY3  TP2q  1  3.400000e-01  2.990000e+00
TDY3  TP1q  1  3.400000e-01  2.740000e+00
TDY3  TN6q  1  3.400000e-01  2.500000e+00
TDY3  TN5q  1  3.400000e-01  2.280000e+00
TDY3  TN4q  1  3.400000e-01  2.280000e+00
TDY3  TN3q  1  3.400000e-01  2.020000e+00
TDY3  TN2q  1  3.400000e-01  2.020000e+00
TDY3  TN1q  1  3.400000e-01  1.770000e+00
TDY3  TC6q  1  3.400000e-01  1.770000e+00
TDY3  TC5q  1  3.400000e-01  1.510000e+00
TDY3  TC4q  1  3.400000e-01  1.230000e+00
TDY3  TC3q  1  3.660000e-01  9.350000e-01
TDY3  TC2q  1  3.660000e-01  9.350000e-01
TDY3  TC1q  1  3.850000e-01  8.550000e-01
TDY3  TX4q  1  3.400000e-01  1.770000e+00
TDY3  TX3q  1  3.400000e-01  1.770000e+00
TDY3  TX2q  1  3.400000e-01  1.510000e+00
TDY3  TX1q  1  3.400000e-01  1.230000e+00
TP6h  TDY3  1  3.400000e-01  2.740000e+00
TP5h  TDY3  1  3.400000e-01  2.500000e+00
TP4h  TDY3  1  3.400000e-01  2.500000e+00
TP3h  TDY3  1  3.400000e-01  2.500000e+00
TDY3  TP2h  1  3.400000e-01  2.500000e+00
TDY3  TP1h  1  3.400000e-01  2.280000e+00
TDY3  TN6h  1  3.400000e-01  2.020000e+00
TDY3  TN5h  1  3.400000e-01  1.770000e+00
TDY3  TN4h  1  3.400000e-01  1.770000e+00
TDY3  TN3h  1  3.400000e-01  1.510000e+00
TDY3  TN2h  1  3.400000e-01  1.510000e+00
TDY3  TN1h  1  3.400000e-01  1.230000e+00
TDY3  TC6h  1  3.400000e-01  1.230000e+00
TDY3  TC5h  1  3.520000e-01  1.050000e+00
TDY3  TC4h  1  3.660000e-01  9.350000e-01
TDY3  TC3h  1  4.110000e-01  8.010000e-01
TDY3  TC2h  1  4.110000e-01  8.010000e-01
TDY3  TC1h  1  4.240000e-01  7.760000e-01
TDY3  TX4h  1  3.400000e-01  1.230000e+00
TDY3  TX3h  1  3.400000e-01  1.230000e+00
TDY3  TX2h  1  3.520000e-01  1.050000e+00
TDY3  TX1h  1  3.660000e-01  9.350000e-01
TP6r  TDY3  1  3.400000e-01  2.740000e+00
TP5r  TDY3  1  3.400000e-01  2.500000e+00
TP4r  TDY3  1  3.400000e-01  2.500000e+00
TP3r  TDY3  1  3.400000e-01  2.500000e+00
TDY3  TP2r  1  3.400000e-01  2.500000e+00
TDY3  TP1r  1  3.400000e-01  2.280000e+00
TDY3  TN6r  1  3.400000e-01  2.020000e+00
TDY3  TN5r  1  3.400000e-01  1.770000e+00
TDY3  TN4r  1  3.400000e-01  1.770000e+00
TDY3  TN3r  1  3.400000e-01  1.510000e+00
TDY3  TN2r  1  3.400000e-01  1.510000e+00
TDY3  TN1r  1  3.400000e-01  1.230000e+00
TDY3  TC6r  1  3.400000e-01  1.230000e+00
TDY3  TC5r  1  3.520000e-01  1.050000e+00
TDY3  TC4r  1  3.660000e-01  9.350000e-01
TDY3  TC3r  1  4.110000e-01  8.010000e-01
TDY3  TC2r  1  4.110000e-01  8.010000e-01
TDY3  TC1r  1  4.240000e-01  7.760000e-01
TDY3  TX4r  1  3.400000e-01  1.230000e+00
TDY3  TX3r  1  3.400000e-01  1.230000e+00
TDY3  TX2r  1  3.520000e-01  1.050000e+00
TDY3  TX1r  1  3.660000e-01  9.350000e-01
TP6dq  TDY3  1  3.400000e-01  2.990000e+00
TP5dq  TDY3  1  3.400000e-01  2.740000e+00
TP4dq  TDY3  1  3.400000e-01  2.740000e+00
TP6dh  TDY3  1  3.400000e-01  2.500000e+00
TP5dh  TDY3  1  3.400000e-01  2.280000e+00
TP4dh  TDY3  1  3.400000e-01  2.280000e+00
TP6dr  TDY3  1  3.400000e-01  2.500000e+00
TP5dr  TDY3  1  3.400000e-01  2.280000e+00
TP4dr  TDY3  1  3.400000e-01  2.280000e+00
W  TDY3  1  3.850000e-01  3.420000e+00
SW  TDY3  1  3.750000e-01  2.720000e+00
TW  TDY3  1  3.450000e-01  2.600000e+00
TDY3  D  1  3.950000e-01  4.873000e+00
TDY3  SD  1  3.650000e-01  1.114500e+01
TDY3  TD  1  3.400000e-01  1.311400e+01
TDY3  Q5  1  3.950000e-01  4.279000e+00
TDY3  SQ5  1  3.650000e-01  5.665000e+00
TDY3  TQ5  1  3.400000e-01  7.674000e+00
TDY3  Q5p  1  3.950000e-01  4.039000e+00
TDY3  SQ5p  1  3.650000e-01  5.395000e+00
TDY3  TQ5p  1  3.400000e-01  7.444000e+00
TDY3  Q5n  1  3.950000e-01  4.909000e+00
TDY3  SQ5n  1  3.650000e-01  6.245000e+00
TDY3  TQ5n  1  3.400000e-01  8.474000e+00
TDY3  Q4  1  3.950000e-01  4.283000e+00
TDY3  SQ4  1  3.650000e-01  5.688000e+00
TDY3  TQ4  1  3.400000e-01  7.726000e+00
TDY3  Q4p  1  3.950000e-01  4.043000e+00
TDY3  SQ4p  1  3.650000e-01  5.418000e+00
TDY3  TQ4p  1  3.400000e-01  7.496000e+00
TDY3  Q4n  1  3.950000e-01  4.913000e+00
TDY3  SQ4n  1  3.650000e-01  6.268000e+00
TDY3  TQ4n  1  3.400000e-01  8.526000e+00
TDY3  Q3  1  3.950000e-01  4.059000e+00
TDY3  SQ3  1  3.650000e-01  5.502000e+00
TDY3  TQ3  1  3.400000e-01  7.681000e+00
TDY3  Q3p  1  3.950000e-01  3.819000e+00
TDY3  SQ3p  1  3.650000e-01  5.232000e+00
TDY3  TQ3p  1  3.400000e-01  7.431000e+00
TDY3  Q3n  1  3.950000e-01  4.619000e+00
TDY3  SQ3n  1  3.650000e-01  6.062000e+00
TDY3  TQ3n  1  3.400000e-01  8.441000e+00
TDY3  Q2  1  3.950000e-01  3.828000e+00
TDY3  SQ2  1  3.650000e-01  5.282000e+00
TDY3  TQ2  1  3.400000e-01  7.541000e+00
TDY3  Q2p  1  3.950000e-01  3.588000e+00
TDY3  SQ2p  1  3.650000e-01  5.012000e+00
TDY3  TQ2p  1  3.400000e-01  7.301000e+00
TDY3  Q2n  1  3.950000e-01  4.308000e+00
TDY3  SQ2n  1  3.650000e-01  5.822000e+00
TDY3  TQ2n  1  3.400000e-01  8.271000e+00
TDY3  Q1  1  3.950000e-01  3.830000e+00
TDY3  SQ1  1  3.650000e-01  5.294000e+00
TDY3  TQ1  1  3.400000e-01  7.566000e+00
TDY3  Q1p  1  3.950000e-01  3.590000e+00
TDY3  SQ1p  1  3.650000e-01  5.024000e+00
TDY3  TQ1p  1  3.400000e-01  7.326000e+00
TDY3  Q1n  1  3.950000e-01  4.310000e+00
TDY3  SQ1n  1  3.650000e-01  5.834000e+00
TDY3  TQ1n  1  3.400000e-01  8.296000e+00
P6  TDG0  1  3.950000e-01  1.670000e+00
SP6  TDG0  1  3.780000e-01  1.450000e+00
TP6  TDG0  1  3.660000e-01  9.350000e-01
P5  TDG0  1  3.950000e-01  1.670000e+00
SP5  TDG0  1  3.780000e-01  1.450000e+00
TP5  TDG0  1  3.660000e-01  9.350000e-01
P4  TDG0  1  3.950000e-01  1.850000e+00
SP4  TDG0  1  3.660000e-01  1.600000e+00
TP4  TDG0  1  3.520000e-01  1.050000e+00
P3  TDG0  1  3.950000e-01  2.110000e+00
SP3  TDG0  1  3.650000e-01  1.750000e+00
TP3  TDG0  1  3.400000e-01  1.230000e+00
P2  TDG0  1  3.950000e-01  2.310000e+00
SP2  TDG0  1  3.650000e-01  1.910000e+00
TP2  TDG0  1  3.400000e-01  1.510000e+00
P1  TDG0  1  3.950000e-01  2.310000e+00
SP1  TDG0  1  3.650000e-01  1.910000e+00
TP1  TDG0  1  3.400000e-01  1.510000e+00
N6  TDG0  1  3.950000e-01  2.310000e+00
SN6  TDG0  1  3.650000e-01  1.910000e+00
TN6  TDG0  1  3.400000e-01  1.510000e+00
N5  TDG0  1  3.950000e-01  2.310000e+00
SN5  TDG0  1  3.650000e-01  1.910000e+00
TN5  TDG0  1  3.400000e-01  1.510000e+00
N4  TDG0  1  3.950000e-01  2.310000e+00
SN4  TDG0  1  3.650000e-01  1.910000e+00
TN4  TDG0  1  3.400000e-01  1.510000e+00
N3  TDG0  1  3.950000e-01  2.310000e+00
SN3  TDG0  1  3.650000e-01  1.910000e+00
TN3  TDG0  1  3.400000e-01  1.510000e+00
N2  TDG0  1  3.950000e-01  2.310000e+00
SN2  TDG0  1  3.650000e-01  1.910000e+00
TN2  TDG0  1  3.400000e-01  1.510000e+00
N1  TDG0  1  3.950000e-01  2.500000e+00
SN1  TDG0  1  3.650000e-01  2.110000e+00
TN1  TDG0  1  3.400000e-01  1.770000e+00
TDG0  C6  1  3.950000e-01  2.500000e+00
TDG0  SC6  1  3.650000e-01  2.110000e+00
TDG0  TC6  1  3.400000e-01  1.770000e+00
TDG0  C5  1  3.950000e-01  2.310000e+00
TDG0  SC5  1  3.650000e-01  1.910000e+00
TDG0  TC5  1  3.400000e-01  1.510000e+00
TDG0  C4  1  3.950000e-01  2.310000e+00
TDG0  SC4  1  3.650000e-01  1.910000e+00
TDG0  TC4  1  3.400000e-01  1.510000e+00
TDG0  C3  1  3.950000e-01  2.110000e+00
TDG0  SC3  1  3.650000e-01  1.750000e+00
TDG0  TC3  1  3.400000e-01  1.230000e+00
TDG0  C2  1  3.950000e-01  1.850000e+00
TDG0  SC2  1  3.660000e-01  1.600000e+00
TDG0  TC2  1  3.520000e-01  1.050000e+00
TDG0  C1  1  3.950000e-01  1.670000e+00
TDG0  SC1  1  3.780000e-01  1.450000e+00
TDG0  TC1  1  3.660000e-01  9.350000e-01
TDG0  X4  1  3.950000e-01  2.310000e+00
TDG0  SX4  1  3.650000e-01  1.910000e+00
TDG0  TX4  1  3.400000e-01  1.510000e+00
TDG0  X3  1  3.950000e-01  2.310000e+00
TDG0  SX3  1  3.650000e-01  1.910000e+00
TDG0  TX3  1  3.400000e-01  1.510000e+00
TDG0  X2  1  3.950000e-01  2.110000e+00
TDG0  SX2  1  3.650000e-01  1.750000e+00
TDG0  TX2  1  3.400000e-01  1.230000e+00
TDG0  X1  1  3.950000e-01  2.110000e+00
TDG0  SX1  1  3.650000e-01  1.750000e+00
TDG0  TX1  1  3.400000e-01  1.230000e+00
SP6d  TDG0  1  3.780000e-01  1.450000e+00
SP5d  TDG0  1  3.780000e-01  1.450000e+00
SP4d  TDG0  1  3.660000e-01  1.600000e+00
SP3d  TDG0  1  3.650000e-01  1.750000e+00
SP2d  TDG0  1  3.650000e-01  1.750000e+00
SP1d  TDG0  1  3.650000e-01  1.750000e+00
SN6d  TDG0  1  3.650000e-01  1.750000e+00
SN5d  TDG0  1  3.650000e-01  1.750000e+00
SN4d  TDG0  1  3.650000e-01  1.750000e+00
SN3d  TDG0  1  3.650000e-01  1.750000e+00
SN2d  TDG0  1  3.650000e-01  1.750000e+00
SN1d  TDG0  1  3.650000e-01  1.910000e+00
SP6a  TDG0  1  3.780000e-01  1.450000e+00
SP5a  TDG0  1  3.780000e-01  1.450000e+00
SP4a  TDG0  1  3.660000e-01  1.600000e+00
SP3a  TDG0  1  3.650000e-01  1.750000e+00
SP2a  TDG0  1  3.650000e-01  2.110000e+00
SP1a  TDG0  1  3.650000e-01  2.110000e+00
SN6a  TDG0  1  3.650000e-01  2.110000e+00
SN5a  TDG0  1  3.650000e-01  2.110000e+00
SN4a  TDG0  1  3.650000e-01  2.110000e+00
SN3a  TDG0  1  3.650000e-01  2.110000e+00
SN2a  TDG0  1  3.650000e-01  2.110000e+00
SP6q  TDG0  1  3.650000e-01  1.750000e+00
SP5q  TDG0  1  3.650000e-01  1.750000e+00
SP4q  TDG0  1  3.650000e-01  1.910000e+00
SP3q  TDG0  1  3.650000e-01  2.110000e+00
SP2q  TDG0  1  3.650000e-01  2.340000e+00
SP1q  TDG0  1  3.650000e-01  2.340000e+00
SN6q  TDG0  1  3.650000e-01  2.340000e+00
SN5q  TDG0  1  3.650000e-01  2.340000e+00
SN4q  TDG0  1  3.650000e-01  2.340000e+00
SN3q  TDG0  1  3.650000e-01  2.340000e+00
SN2q  TDG0  1  3.650000e-01  2.340000e+00
SN1q  TDG0  1  3.650000e-01  2.570000e+00
SP6h  TDG0  1  3.780000e-01  1.450000e+00
SP5h  TDG0  1  3.780000e-01  1.450000e+00
SP4h  TDG0  1  3.660000e-01  1.600000e+00
SP3h  TDG0  1  3.650000e-01  1.750000e+00
SP2h  TDG0  1  3.650000e-01  1.910000e+00
SP1h  TDG0  1  3.650000e-01  1.910000e+00
SN6h  TDG0  1  3.650000e-01  1.910000e+00
SN5h  TDG0  1  3.650000e-01  1.910000e+00
SN4h  TDG0  1  3.650000e-01  1.910000e+00
SN3h  TDG0  1  3.650000e-01  1.910000e+00
SN2h  TDG0  1  3.650000e-01  1.910000e+00
SN1h  TDG0  1  3.650000e-01  2.110000e+00
SP6r  TDG0  1  3.780000e-01  1.450000e+00
SP5r  TDG0  1  3.780000e-01  1.450000e+00
SP4r  TDG0  1  3.660000e-01  1.600000e+00
SP3r  TDG0  1  3.650000e-01  1.750000e+00
SP2r  TDG0  1  3.650000e-01  1.910000e+00
SP1r  TDG0  1  3.650000e-01  1.910000e+00
SN6r  TDG0  1  3.650000e-01  1.910000e+00
SN5r  TDG0  1  3.650000e-01  1.910000e+00
SN4r  TDG0  1  3.650000e-01  1.910000e+00
SN3r  TDG0  1  3.650000e-01  1.910000e+00
SN2r  TDG0  1  3.650000e-01  1.910000e+00
SN1r  TDG0  1  3.650000e-01  2.110000e+00
SP6dq  TDG0  1  3.650000e-01  1.750000e+00
SP5dq  TDG0  1  3.650000e-01  1.750000e+00
SP4dq  TDG0  1  3.650000e-01  1.910000e+00
SP3dq  TDG0  1  3.650000e-01  2.110000e+00
SP2dq  TDG0  1  3.650000e-01  2.110000e+00
SP1dq  TDG0  1  3.650000e-01  2.110000e+00
SN6dq  TDG0  1  3.650000e-01  2.110000e+00
SN5dq  TDG0  1  3.650000e-01  2.110000e+00
SN4dq  TDG0  1  3.650000e-01  2.110000e+00
SN3dq  TDG0  1  3.650000e-01  2.110000e+00
SN2dq  TDG0  1  3.650000e-01  2.110000e+00
SN2aq  TDG0  1  3.650000e-01  2.570000e+00
SN3aq  TDG0  1  3.650000e-01  2.570000e+00
SN4aq  TDG0  1  3.650000e-01  2.570000e+00
SN5aq  TDG0  1  3.650000e-01  2.570000e+00
SN6aq  TDG0  1  3.650000e-01  2.570000e+00
SP1aq  TDG0  1  3.650000e-01  2.570000e+00
SP2aq  TDG0  1  3.650000e-01  2.570000e+00
SP3aq  TDG0  1  3.650000e-01  2.110000e+00
SP4aq  TDG0  1  3.650000e-01  1.910000e+00
SP5aq  TDG0  1  3.650000e-01  1.750000e+00
SP6aq  TDG0  1  3.650000e-01  1.750000e+00
SP6dh  TDG0  1  3.780000e-01  1.450000e+00
SP5dh  TDG0  1  3.780000e-01  1.450000e+00
SP4dh  TDG0  1  3.660000e-01  1.600000e+00
SP3dh  TDG0  1  3.650000e-01  1.750000e+00
SP2dh  TDG0  1  3.650000e-01  1.750000e+00
SP1dh  TDG0  1  3.650000e-01  1.750000e+00
SN6dh  TDG0  1  3.650000e-01  1.750000e+00
SN5dh  TDG0  1  3.650000e-01  1.750000e+00
SN4dh  TDG0  1  3.650000e-01  1.750000e+00
SN3dh  TDG0  1  3.650000e-01  1.750000e+00
SN2dh  TDG0  1  3.650000e-01  1.750000e+00
SN2ah  TDG0  1  3.650000e-01  2.110000e+00
SN3ah  TDG0  1  3.650000e-01  2.110000e+00
SN4ah  TDG0  1  3.650000e-01  2.110000e+00
SN5ah  TDG0  1  3.650000e-01  2.110000e+00
SN6ah  TDG0  1  3.650000e-01  2.110000e+00
SP1ah  TDG0  1  3.650000e-01  2.110000e+00
SP2ah  TDG0  1  3.650000e-01  2.110000e+00
SP3ah  TDG0  1  3.650000e-01  1.750000e+00
SP4ah  TDG0  1  3.660000e-01  1.600000e+00
SP5ah  TDG0  1  3.780000e-01  1.450000e+00
SP6ah  TDG0  1  3.780000e-01  1.450000e+00
SP6dr  TDG0  1  3.780000e-01  1.450000e+00
SP5dr  TDG0  1  3.780000e-01  1.450000e+00
SP4dr  TDG0  1  3.660000e-01  1.600000e+00
SP3dr  TDG0  1  3.650000e-01  1.750000e+00
SP2dr  TDG0  1  3.650000e-01  1.750000e+00
SP1dr  TDG0  1  3.650000e-01  1.750000e+00
SN6dr  TDG0  1  3.650000e-01  1.750000e+00
SN5dr  TDG0  1  3.650000e-01  1.750000e+00
SN4dr  TDG0  1  3.650000e-01  1.750000e+00
SN3dr  TDG0  1  3.650000e-01  1.750000e+00
SN2dr  TDG0  1  3.650000e-01  1.750000e+00
SN2ar  TDG0  1  3.650000e-01  2.110000e+00
SN3ar  TDG0  1  3.650000e-01  2.110000e+00
SN4ar  TDG0  1  3.650000e-01  2.110000e+00
SN5ar  TDG0  1  3.650000e-01  2.110000e+00
SN6ar  TDG0  1  3.650000e-01  2.110000e+00
SP1ar  TDG0  1  3.650000e-01  2.110000e+00
SP2ar  TDG0  1  3.650000e-01  2.110000e+00
SP3ar  TDG0  1  3.650000e-01  1.750000e+00
SP4ar  TDG0  1  3.660000e-01  1.600000e+00
SP5ar  TDG0  1  3.780000e-01  1.450000e+00
SP6ar  TDG0  1  3.780000e-01  1.450000e+00
TDG0  SN1dq  1  3.650000e-01  2.340000e+00
TDG0  SX1eq  1  3.650000e-01  2.340000e+00
TDG0  SX2eq  1  3.650000e-01  2.340000e+00
TDG0  SX3eq  1  3.650000e-01  2.570000e+00
TDG0  SX4eq  1  3.650000e-01  2.570000e+00
TDG0  SC1eq  1  3.650000e-01  1.910000e+00
TDG0  SC2eq  1  3.650000e-01  2.110000e+00
TDG0  SC3eq  1  3.650000e-01  2.340000e+00
TDG0  SC4eq  1  3.650000e-01  2.570000e+00
TDG0  SC5eq  1  3.650000e-01  2.570000e+00
TDG0  SC6eq  1  3.650000e-01  2.830000e+00
TDG0  SX1vq  1  3.650000e-01  1.910000e+00
TDG0  SX2vq  1  3.650000e-01  1.910000e+00
TDG0  SX3vq  1  3.650000e-01  2.110000e+00
TDG0  SX4vq  1  3.650000e-01  2.110000e+00
TDG0  SC1vq  1  3.660000e-01  1.600000e+00
TDG0  SC2vq  1  3.650000e-01  1.750000e+00
TDG0  SC3vq  1  3.650000e-01  1.910000e+00
TDG0  SC4vq  1  3.650000e-01  2.110000e+00
TDG0  SC5vq  1  3.650000e-01  2.110000e+00
TDG0  SC6vq  1  3.650000e-01  2.340000e+00
TDG0  SN1aq  1  3.650000e-01  2.830000e+00
TDG0  SN1dh  1  3.650000e-01  1.910000e+00
TDG0  SX1eh  1  3.650000e-01  1.910000e+00
TDG0  SX2eh  1  3.650000e-01  1.910000e+00
TDG0  SX3eh  1  3.650000e-01  2.110000e+00
TDG0  SX4eh  1  3.650000e-01  2.110000e+00
TDG0  SC1eh  1  3.660000e-01  1.600000e+00
TDG0  SC2eh  1  3.650000e-01  1.750000e+00
TDG0  SC3eh  1  3.650000e-01  1.910000e+00
TDG0  SC4eh  1  3.650000e-01  2.110000e+00
TDG0  SC5eh  1  3.650000e-01  2.110000e+00
TDG0  SC6eh  1  3.650000e-01  2.340000e+00
TDG0  SX1vh  1  3.660000e-01  1.600000e+00
TDG0  SX2vh  1  3.660000e-01  1.600000e+00
TDG0  SX3vh  1  3.650000e-01  1.750000e+00
TDG0  SX4vh  1  3.650000e-01  1.750000e+00
TDG0  SC1vh  1  3.940000e-01  1.290000e+00
TDG0  SC2vh  1  3.780000e-01  1.450000e+00
TDG0  SC3vh  1  3.660000e-01  1.600000e+00
TDG0  SC4vh  1  3.650000e-01  1.750000e+00
TDG0  SC5vh  1  3.650000e-01  1.750000e+00
TDG0  SC6vh  1  3.650000e-01  1.910000e+00
TDG0  SN1ah  1  3.650000e-01  2.340000e+00
TDG0  SN1dr  1  3.650000e-01  1.910000e+00
TDG0  SX1er  1  3.650000e-01  1.910000e+00
TDG0  SX2er  1  3.650000e-01  1.910000e+00
TDG0  SX3er  1  3.650000e-01  2.110000e+00
TDG0  SX4er  1  3.650000e-01  2.110000e+00
TDG0  SC1er  1  3.660000e-01  1.600000e+00
TDG0  SC2er  1  3.650000e-01  1.750000e+00
TDG0  SC3er  1  3.650000e-01  1.910000e+00
TDG0  SC4er  1  3.650000e-01  2.110000e+00
TDG0  SC5er  1  3.650000e-01  2.110000e+00
TDG0  SC6er  1  3.650000e-01  2.340000e+00
TDG0  SX1vr  1  3.660000e-01  1.600000e+00
TDG0  SX2vr  1  3.660000e-01  1.600000e+00
TDG0  SX3vr  1  3.650000e-01  1.750000e+00
TDG0  SX4vr  1  3.650000e-01  1.750000e+00
TDG0  SC1vr  1  3.940000e-01  1.290000e+00
TDG0  SC2vr  1  3.780000e-01  1.450000e+00
TDG0  SC3vr  1  3.660000e-01  1.600000e+00
TDG0  SC4vr  1  3.650000e-01  1.750000e+00
TDG0  SC5vr  1  3.650000e-01  1.750000e+00
TDG0  SC6vr  1  3.650000e-01  1.910000e+00
TDG0  SN1ar  1  3.650000e-01  2.340000e+00
TDG0  SN1a  1  3.650000e-01  2.340000e+00
TDG0  SC6e  1  3.650000e-01  2.340000e+00
TDG0  SC5e  1  3.650000e-01  2.110000e+00
TDG0  SC4e  1  3.650000e-01  2.110000e+00
TDG0  SC3e  1  3.650000e-01  1.910000e+00
TDG0  SC2e  1  3.650000e-01  1.750000e+00
TDG0  SC1e  1  3.660000e-01  1.600000e+00
TDG0  SX4e  1  3.650000e-01  2.110000e+00
TDG0  SX3e  1  3.650000e-01  2.110000e+00
TDG0  SX2e  1  3.650000e-01  1.910000e+00
TDG0  SX1e  1  3.650000e-01  1.910000e+00
TDG0  SC6v  1  3.650000e-01  1.910000e+00
TDG0  SC5v  1  3.650000e-01  1.750000e+00
TDG0  SC4v  1  3.650000e-01  1.750000e+00
TDG0  SC3v  1  3.660000e-01  1.600000e+00
TDG0  SC2v  1  3.780000e-01  1.450000e+00
TDG0  SC1v  1  3.940000e-01  1.290000e+00
TDG0  SX4v  1  3.650000e-01  1.750000e+00
TDG0  SX3v  1  3.650000e-01  1.750000e+00
TDG0  SX2v  1  3.660000e-01  1.600000e+00
TDG0  SX1v  1  3.660000e-01  1.600000e+00
TDG0  SC6q  1  3.650000e-01  2.570000e+00
TDG0  SC5q  1  3.650000e-01  2.340000e+00
TDG0  SC4q  1  3.650000e-01  2.340000e+00
TDG0  SC3q  1  3.650000e-01  2.110000e+00
TDG0  SC2q  1  3.650000e-01  1.910000e+00
TDG0  SC1q  1  3.650000e-01  1.750000e+00
TDG0  SX4q  1  3.650000e-01  2.340000e+00
TDG0  SX3q  1  3.650000e-01  2.340000e+00
TDG0  SX2q  1  3.650000e-01  2.110000e+00
TDG0  SX1q  1  3.650000e-01  2.110000e+00
TDG0  SC6h  1  3.650000e-01  2.110000e+00
TDG0  SC5h  1  3.650000e-01  1.910000e+00
TDG0  SC4h  1  3.650000e-01  1.910000e+00
TDG0  SC3h  1  3.650000e-01  1.750000e+00
TDG0  SC2h  1  3.660000e-01  1.600000e+00
TDG0  SC1h  1  3.780000e-01  1.450000e+00
TDG0  SX4h  1  3.650000e-01  1.910000e+00
TDG0  SX3h  1  3.650000e-01  1.910000e+00
TDG0  SX2h  1  3.650000e-01  1.750000e+00
TDG0  SX1h  1  3.650000e-01  1.750000e+00
TDG0  SC6r  1  3.650000e-01  2.110000e+00
TDG0  SC5r  1  3.650000e-01  1.910000e+00
TDG0  SC4r  1  3.650000e-01  1.910000e+00
TDG0  SC3r  1  3.650000e-01  1.750000e+00
TDG0  SC2r  1  3.660000e-01  1.600000e+00
TDG0  SC1r  1  3.780000e-01  1.450000e+00
TDG0  SX4r  1  3.650000e-01  1.910000e+00
TDG0  SX3r  1  3.650000e-01  1.910000e+00
TDG0  SX2r  1  3.650000e-01  1.750000e+00
TDG0  SX1r  1  3.650000e-01  1.750000e+00
P6d  TDG0  1  3.950000e-01  1.670000e+00
P5d  TDG0  1  3.950000e-01  1.670000e+00
P4d  TDG0  1  3.950000e-01  1.850000e+00
P3d  TDG0  1  3.950000e-01  2.110000e+00
P2d  TDG0  1  3.950000e-01  2.110000e+00
P1d  TDG0  1  3.950000e-01  2.110000e+00
N6d  TDG0  1  3.950000e-01  2.110000e+00
N5d  TDG0  1  3.950000e-01  2.110000e+00
N4d  TDG0  1  3.950000e-01  2.110000e+00
N3d  TDG0  1  3.950000e-01  2.110000e+00
N2d  TDG0  1  3.950000e-01  2.110000e+00
N1d  TDG0  1  3.950000e-01  2.310000e+00
P6a  TDG0  1  3.950000e-01  1.670000e+00
P5a  TDG0  1  3.950000e-01  1.670000e+00
P4a  TDG0  1  3.950000e-01  1.850000e+00
P3a  TDG0  1  3.950000e-01  2.110000e+00
P2a  TDG0  1  3.950000e-01  2.500000e+00
P1a  TDG0  1  3.950000e-01  2.500000e+00
N6a  TDG0  1  3.950000e-01  2.500000e+00
N5a  TDG0  1  3.950000e-01  2.500000e+00
N4a  TDG0  1  3.950000e-01  2.500000e+00
N3a  TDG0  1  3.950000e-01  2.500000e+00
N2a  TDG0  1  3.950000e-01  2.500000e+00
P6q  TDG0  1  3.950000e-01  2.110000e+00
P5q  TDG0  1  3.950000e-01  2.110000e+00
P4q  TDG0  1  3.950000e-01  2.310000e+00
P3q  TDG0  1  3.950000e-01  2.500000e+00
P2q  TDG0  1  3.950000e-01  2.700000e+00
P1q  TDG0  1  3.950000e-01  2.700000e+00
N6q  TDG0  1  3.950000e-01  2.700000e+00
N5q  TDG0  1  3.950000e-01  2.700000e+00
N4q  TDG0  1  3.950000e-01  2.700000e+00
N3q  TDG0  1  3.950000e-01  2.700000e+00
N2q  TDG0  1  3.950000e-01  2.700000e+00
N1q  TDG0  1  3.950000e-01  2.940000e+00
P6dq  TDG0  1  3.950000e-01  2.110000e+00
P5dq  TDG0  1  3.950000e-01  2.110000e+00
P4dq  TDG0  1  3.950000e-01  2.310000e+00
P3dq  TDG0  1  3.950000e-01  2.500000e+00
P2dq  TDG0  1  3.950000e-01  2.500000e+00
P1dq  TDG0  1  3.950000e-01  2.500000e+00
N6dq  TDG0  1  3.950000e-01  2.500000e+00
N5dq  TDG0  1  3.950000e-01  2.500000e+00
N4dq  TDG0  1  3.950000e-01  2.500000e+00
N3dq  TDG0  1  3.950000e-01  2.500000e+00
N2dq  TDG0  1  3.950000e-01  2.500000e+00
N2aq  TDG0  1  3.950000e-01  2.940000e+00
N3aq  TDG0  1  3.950000e-01  2.940000e+00
N4aq  TDG0  1  3.950000e-01  2.940000e+00
N5aq  TDG0  1  3.950000e-01  2.940000e+00
N6aq  TDG0  1  3.950000e-01  2.940000e+00
P1aq  TDG0  1  3.950000e-01  2.940000e+00
P2aq  TDG0  1  3.950000e-01  2.940000e+00
P3aq  TDG0  1  3.950000e-01  2.500000e+00
P4aq  TDG0  1  3.950000e-01  2.310000e+00
P5aq  TDG0  1  3.950000e-01  2.110000e+00
P6aq  TDG0  1  3.950000e-01  2.110000e+00
P6h  TDG0  1  3.950000e-01  1.670000e+00
P5h  TDG0  1  3.950000e-01  1.670000e+00
P4h  TDG0  1  3.950000e-01  1.850000e+00
P3h  TDG0  1  3.950000e-01  2.110000e+00
P2h  TDG0  1  3.950000e-01  2.310000e+00
P1h  TDG0  1  3.950000e-01  2.310000e+00
N6h  TDG0  1  3.950000e-01  2.310000e+00
N5h  TDG0  1  3.950000e-01  2.310000e+00
N4h  TDG0  1  3.950000e-01  2.310000e+00
N3h  TDG0  1  3.950000e-01  2.310000e+00
N2h  TDG0  1  3.950000e-01  2.310000e+00
N1h  TDG0  1  3.950000e-01  2.500000e+00
P6dh  TDG0  1  3.950000e-01  1.670000e+00
P5dh  TDG0  1  3.950000e-01  1.670000e+00
P4dh  TDG0  1  3.950000e-01  1.850000e+00
P3dh  TDG0  1  3.950000e-01  2.110000e+00
P2dh  TDG0  1  3.950000e-01  2.110000e+00
P1dh  TDG0  1  3.950000e-01  2.110000e+00
N6dh  TDG0  1  3.950000e-01  2.110000e+00
N5dh  TDG0  1  3.950000e-01  2.110000e+00
N4dh  TDG0  1  3.950000e-01  2.110000e+00
N3dh  TDG0  1  3.950000e-01  2.110000e+00
N2dh  TDG0  1  3.950000e-01  2.110000e+00
N2ah  TDG0  1  3.950000e-01  2.500000e+00
N3ah  TDG0  1  3.950000e-01  2.500000e+00
N4ah  TDG0  1  3.950000e-01  2.500000e+00
N5ah  TDG0  1  3.950000e-01  2.500000e+00
N6ah  TDG0  1  3.950000e-01  2.500000e+00
P1ah  TDG0  1  3.950000e-01  2.500000e+00
P2ah  TDG0  1  3.950000e-01  2.500000e+00
P3ah  TDG0  1  3.950000e-01  2.110000e+00
P4ah  TDG0  1  3.950000e-01  1.850000e+00
P5ah  TDG0  1  3.950000e-01  1.670000e+00
P6ah  TDG0  1  3.950000e-01  1.670000e+00
P6r  TDG0  1  3.950000e-01  1.670000e+00
P5r  TDG0  1  3.950000e-01  1.670000e+00
P4r  TDG0  1  3.950000e-01  1.850000e+00
P3r  TDG0  1  3.950000e-01  2.110000e+00
P2r  TDG0  1  3.950000e-01  2.310000e+00
P1r  TDG0  1  3.950000e-01  2.310000e+00
N6r  TDG0  1  3.950000e-01  2.310000e+00
N5r  TDG0  1  3.950000e-01  2.310000e+00
N4r  TDG0  1  3.950000e-01  2.310000e+00
N3r  TDG0  1  3.950000e-01  2.310000e+00
N2r  TDG0  1  3.950000e-01  2.310000e+00
N1r  TDG0  1  3.950000e-01  2.500000e+00
P6dr  TDG0  1  3.950000e-01  1.670000e+00
P5dr  TDG0  1  3.950000e-01  1.670000e+00
P4dr  TDG0  1  3.950000e-01  1.850000e+00
P3dr  TDG0  1  3.950000e-01  2.110000e+00
P2dr  TDG0  1  3.950000e-01  2.110000e+00
P1dr  TDG0  1  3.950000e-01  2.110000e+00
N6dr  TDG0  1  3.950000e-01  2.110000e+00
N5dr  TDG0  1  3.950000e-01  2.110000e+00
N4dr  TDG0  1  3.950000e-01  2.110000e+00
N3dr  TDG0  1  3.950000e-01  2.110000e+00
N2dr  TDG0  1  3.950000e-01  2.110000e+00
N2ar  TDG0  1  3.950000e-01  2.500000e+00
N3ar  TDG0  1  3.950000e-01  2.500000e+00
N4ar  TDG0  1  3.950000e-01  2.500000e+00
N5ar  TDG0  1  3.950000e-01  2.500000e+00
N6ar  TDG0  1  3.950000e-01  2.500000e+00
P1ar  TDG0  1  3.950000e-01  2.500000e+00
P2ar  TDG0  1  3.950000e-01  2.500000e+00
P3ar  TDG0  1  3.950000e-01  2.110000e+00
P4ar  TDG0  1  3.950000e-01  1.850000e+00
P5ar  TDG0  1  3.950000e-01  1.670000e+00
P6ar  TDG0  1  3.950000e-01  1.670000e+00
TDG0  N1a  1  3.950000e-01  2.700000e+00
TDG0  C6e  1  3.950000e-01  2.700000e+00
TDG0  C5e  1  3.950000e-01  2.500000e+00
TDG0  C4e  1  3.950000e-01  2.500000e+00
TDG0  C3e  1  3.950000e-01  2.310000e+00
TDG0  C2e  1  3.950000e-01  2.110000e+00
TDG0  C1e  1  3.950000e-01  1.850000e+00
TDG0  X4e  1  3.950000e-01  2.500000e+00
TDG0  X3e  1  3.950000e-01  2.500000e+00
TDG0  X2e  1  3.950000e-01  2.310000e+00
TDG0  X1e  1  3.950000e-01  2.310000e+00
TDG0  C6v  1  3.950000e-01  2.310000e+00
TDG0  C5v  1  3.950000e-01  2.110000e+00
TDG0  C4v  1  3.950000e-01  2.110000e+00
TDG0  C3v  1  3.950000e-01  1.850000e+00
TDG0  C2v  1  3.950000e-01  1.670000e+00
TDG0  C1v  1  3.980000e-01  1.450000e+00
TDG0  X4v  1  3.950000e-01  2.110000e+00
TDG0  X3v  1  3.950000e-01  2.110000e+00
TDG0  X2v  1  3.950000e-01  1.850000e+00
TDG0  X1v  1  3.950000e-01  1.850000e+00
TDG0  C6q  1  3.950000e-01  2.940000e+00
TDG0  C5q  1  3.950000e-01  2.700000e+00
TDG0  C4q  1  3.950000e-01  2.700000e+00
TDG0  C3q  1  3.950000e-01  2.500000e+00
TDG0  C2q  1  3.950000e-01  2.310000e+00
TDG0  C1q  1  3.950000e-01  2.110000e+00
TDG0  X4q  1  3.950000e-01  2.700000e+00
TDG0  X3q  1  3.950000e-01  2.700000e+00
TDG0  X2q  1  3.950000e-01  2.500000e+00
TDG0  X1q  1  3.950000e-01  2.500000e+00
TDG0  N1dq  1  3.950000e-01  2.700000e+00
TDG0  X1eq  1  3.950000e-01  2.700000e+00
TDG0  X2eq  1  3.950000e-01  2.700000e+00
TDG0  X3eq  1  3.950000e-01  2.940000e+00
TDG0  X4eq  1  3.950000e-01  2.940000e+00
TDG0  C1eq  1  3.950000e-01  2.310000e+00
TDG0  C2eq  1  3.950000e-01  2.500000e+00
TDG0  C3eq  1  3.950000e-01  2.700000e+00
TDG0  C4eq  1  3.950000e-01  2.940000e+00
TDG0  C5eq  1  3.950000e-01  2.940000e+00
TDG0  C6eq  1  3.950000e-01  3.190000e+00
TDG0  X1vq  1  3.950000e-01  2.310000e+00
TDG0  X2vq  1  3.950000e-01  2.310000e+00
TDG0  X3vq  1  3.950000e-01  2.500000e+00
TDG0  X4vq  1  3.950000e-01  2.500000e+00
TDG0  C1vq  1  3.950000e-01  1.850000e+00
TDG0  C2vq  1  3.950000e-01  2.110000e+00
TDG0  C3vq  1  3.950000e-01  2.310000e+00
TDG0  C4vq  1  3.950000e-01  2.500000e+00
TDG0  C5vq  1  3.950000e-01  2.500000e+00
TDG0  C6vq  1  3.950000e-01  2.700000e+00
TDG0  N1aq  1  3.950000e-01  3.190000e+00
TDG0  C6h  1  3.950000e-01  2.500000e+00
TDG0  C5h  1  3.950000e-01  2.310000e+00
TDG0  C4h  1  3.950000e-01  2.310000e+00
TDG0  C3h  1  3.950000e-01  2.110000e+00
TDG0  C2h  1  3.950000e-01  1.850000e+00
TDG0  C1h  1  3.950000e-01  1.670000e+00
TDG0  X4h  1  3.950000e-01  2.310000e+00
TDG0  X3h  1  3.950000e-01  2.310000e+00
TDG0  X2h  1  3.950000e-01  2.110000e+00
TDG0  X1h  1  3.950000e-01  2.110000e+00
TDG0  N1dh  1  3.950000e-01  2.310000e+00
TDG0  X1eh  1  3.950000e-01  2.310000e+00
TDG0  X2eh  1  3.950000e-01  2.310000e+00
TDG0  X3eh  1  3.950000e-01  2.500000e+00
TDG0  X4eh  1  3.950000e-01  2.500000e+00
TDG0  C1eh  1  3.950000e-01  1.850000e+00
TDG0  C2eh  1  3.950000e-01  2.110000e+00
TDG0  C3eh  1  3.950000e-01  2.310000e+00
TDG0  C4eh  1  3.950000e-01  2.500000e+00
TDG0  C5eh  1  3.950000e-01  2.500000e+00
TDG0  C6eh  1  3.950000e-01  2.700000e+00
TDG0  X1vh  1  3.950000e-01  1.850000e+00
TDG0  X2vh  1  3.950000e-01  1.850000e+00
TDG0  X3vh  1  3.950000e-01  2.110000e+00
TDG0  X4vh  1  3.950000e-01  2.110000e+00
TDG0  C1vh  1  3.980000e-01  1.450000e+00
TDG0  C2vh  1  3.950000e-01  1.670000e+00
TDG0  C3vh  1  3.950000e-01  1.850000e+00
TDG0  C4vh  1  3.950000e-01  2.110000e+00
TDG0  C5vh  1  3.950000e-01  2.110000e+00
TDG0  C6vh  1  3.950000e-01  2.310000e+00
TDG0  N1ah  1  3.950000e-01  2.700000e+00
TDG0  C6r  1  3.950000e-01  2.500000e+00
TDG0  C5r  1  3.950000e-01  2.310000e+00
TDG0  C4r  1  3.950000e-01  2.310000e+00
TDG0  C3r  1  3.950000e-01  2.110000e+00
TDG0  C2r  1  3.950000e-01  1.850000e+00
TDG0  C1r  1  3.950000e-01  1.670000e+00
TDG0  X4r  1  3.950000e-01  2.310000e+00
TDG0  X3r  1  3.950000e-01  2.310000e+00
TDG0  X2r  1  3.950000e-01  2.110000e+00
TDG0  X1r  1  3.950000e-01  2.110000e+00
TDG0  N1dr  1  3.950000e-01  2.310000e+00
TDG0  X1er  1  3.950000e-01  2.310000e+00
TDG0  X2er  1  3.950000e-01  2.310000e+00
TDG0  X3er  1  3.950000e-01  2.500000e+00
TDG0  X4er  1  3.950000e-01  2.500000e+00
TDG0  C1er  1  3.950000e-01  1.850000e+00
TDG0  C2er  1  3.950000e-01  2.110000e+00
TDG0  C3er  1  3.950000e-01  2.310000e+00
TDG0  C4er  1  3.950000e-01  2.500000e+00
TDG0  C5er  1  3.950000e-01  2.500000e+00
TDG0  C6er  1  3.950000e-01  2.700000e+00
TDG0  X1vr  1  3.950000e-01  1.850000e+00
TDG0  X2vr  1  3.950000e-01  1.850000e+00
TDG0  X3vr  1  3.950000e-01  2.110000e+00
TDG0  X4vr  1  3.950000e-01  2.110000e+00
TDG0  C1vr  1  3.980000e-01  1.450000e+00
TDG0  C2vr  1  3.950000e-01  1.670000e+00
TDG0  C3vr  1  3.950000e-01  1.850000e+00
TDG0  C4vr  1  3.950000e-01  2.110000e+00
TDG0  C5vr  1  3.950000e-01  2.110000e+00
TDG0  C6vr  1  3.950000e-01  2.310000e+00
TDG0  N1ar  1  3.950000e-01  2.700000e+00
TDG0  TN1a  1  3.400000e-01  2.500000e+00
TDG0  TN1aq  1  3.400000e-01  2.990000e+00
TDG0  TN1ah  1  3.400000e-01  2.500000e+00
TDG0  TN1ar  1  3.400000e-01  2.500000e+00
TP6a  TDG0  1  3.660000e-01  9.350000e-01
TP5a  TDG0  1  3.660000e-01  9.350000e-01
TP4a  TDG0  1  3.520000e-01  1.050000e+00
TP3a  TDG0  1  3.400000e-01  1.230000e+00
TP2a  TDG0  1  3.400000e-01  2.280000e+00
TP1a  TDG0  1  3.400000e-01  2.280000e+00
TN6a  TDG0  1  3.400000e-01  2.280000e+00
TN5a  TDG0  1  3.400000e-01  2.280000e+00
TN4a  TDG0  1  3.400000e-01  2.280000e+00
TN3a  TDG0  1  3.400000e-01  2.280000e+00
TN2a  TDG0  1  3.400000e-01  2.280000e+00
TN2aq  TDG0  1  3.400000e-01  2.740000e+00
TN3aq  TDG0  1  3.400000e-01  2.740000e+00
TN4aq  TDG0  1  3.400000e-01  2.740000e+00
TN5aq  TDG0  1  3.400000e-01  2.740000e+00
TN6aq  TDG0  1  3.400000e-01  2.740000e+00
TP1aq  TDG0  1  3.400000e-01  2.740000e+00
TP2aq  TDG0  1  3.400000e-01  2.740000e+00
TP3aq  TDG0  1  3.400000e-01  2.280000e+00
TP4aq  TDG0  1  3.400000e-01  2.020000e+00
TP5aq  TDG0  1  3.400000e-01  1.230000e+00
TP6aq  TDG0  1  3.400000e-01  1.230000e+00
TN2ah  TDG0  1  3.400000e-01  2.280000e+00
TN3ah  TDG0  1  3.400000e-01  2.280000e+00
TN4ah  TDG0  1  3.400000e-01  2.280000e+00
TN5ah  TDG0  1  3.400000e-01  2.280000e+00
TN6ah  TDG0  1  3.400000e-01  2.280000e+00
TP1ah  TDG0  1  3.400000e-01  2.280000e+00
TP2ah  TDG0  1  3.400000e-01  2.280000e+00
TP3ah  TDG0  1  3.400000e-01  1.230000e+00
TP4ah  TDG0  1  3.520000e-01  1.050000e+00
TP5ah  TDG0  1  3.660000e-01  9.350000e-01
TP6ah  TDG0  1  3.660000e-01  9.350000e-01
TN2ar  TDG0  1  3.400000e-01  2.280000e+00
TN3ar  TDG0  1  3.400000e-01  2.280000e+00
TN4ar  TDG0  1  3.400000e-01  2.280000e+00
TN5ar  TDG0  1  3.400000e-01  2.280000e+00
TN6ar  TDG0  1  3.400000e-01  2.280000e+00
TP1ar  TDG0  1  3.400000e-01  2.280000e+00
TP2ar  TDG0  1  3.400000e-01  2.280000e+00
TP3ar  TDG0  1  3.400000e-01  1.230000e+00
TP4ar  TDG0  1  3.520000e-01  1.050000e+00
TP5ar  TDG0  1  3.660000e-01  9.350000e-01
TP6ar  TDG0  1  3.660000e-01  9.350000e-01
TDG0  TC6e  1  3.400000e-01  2.020000e+00
TDG0  TC5e  1  3.400000e-01  1.770000e+00
TDG0  TC4e  1  3.400000e-01  1.770000e+00
TDG0  TC3e  1  3.400000e-01  1.510000e+00
TDG0  TC2e  1  3.400000e-01  1.230000e+00
TDG0  TC1e  1  3.520000e-01  1.050000e+00
TDG0  TX4e  1  3.400000e-01  1.770000e+00
TDG0  TX3e  1  3.400000e-01  1.770000e+00
TDG0  TX2e  1  3.400000e-01  1.510000e+00
TDG0  TX1e  1  3.400000e-01  1.510000e+00
TDG0  TX1eq  1  3.400000e-01  2.020000e+00
TDG0  TX2eq  1  3.400000e-01  2.020000e+00
TDG0  TX3eq  1  3.400000e-01  2.280000e+00
TDG0  TX4eq  1  3.400000e-01  2.280000e+00
TDG0  TC1eq  1  3.400000e-01  1.510000e+00
TDG0  TC2eq  1  3.400000e-01  1.770000e+00
TDG0  TC3eq  1  3.400000e-01  2.020000e+00
TDG0  TC4eq  1  3.400000e-01  2.280000e+00
TDG0  TC5eq  1  3.400000e-01  2.280000e+00
TDG0  TC6eq  1  3.400000e-01  2.500000e+00
TDG0  TX1eh  1  3.400000e-01  1.510000e+00
TDG0  TX2eh  1  3.400000e-01  1.510000e+00
TDG0  TX3eh  1  3.400000e-01  1.770000e+00
TDG0  TX4eh  1  3.400000e-01  1.770000e+00
TDG0  TC1eh  1  3.520000e-01  1.050000e+00
TDG0  TC2eh  1  3.400000e-01  1.230000e+00
TDG0  TC3eh  1  3.400000e-01  1.510000e+00
TDG0  TC4eh  1  3.400000e-01  1.770000e+00
TDG0  TC5eh  1  3.400000e-01  1.770000e+00
TDG0  TC6eh  1  3.400000e-01  2.020000e+00
TDG0  TX1er  1  3.400000e-01  1.510000e+00
TDG0  TX2er  1  3.400000e-01  1.510000e+00
TDG0  TX3er  1  3.400000e-01  1.770000e+00
TDG0  TX4er  1  3.400000e-01  1.770000e+00
TDG0  TC1er  1  3.520000e-01  1.050000e+00
TDG0  TC2er  1  3.400000e-01  1.230000e+00
TDG0  TC3er  1  3.400000e-01  1.510000e+00
TDG0  TC4er  1  3.400000e-01  1.770000e+00
TDG0  TC5er  1  3.400000e-01  1.770000e+00
TDG0  TC6er  1  3.400000e-01  2.020000e+00
TDG0  TC6v  1  3.400000e-01  1.510000e+00
TDG0  TC5v  1  3.400000e-01  1.230000e+00
TDG0  TC4v  1  3.400000e-01  1.230000e+00
TDG0  TC3v  1  3.520000e-01  1.050000e+00
TDG0  TC2v  1  3.660000e-01  9.350000e-01
TDG0  TC1v  1  3.850000e-01  8.550000e-01
TDG0  TX4v  1  3.400000e-01  1.230000e+00
TDG0  TX3v  1  3.400000e-01  1.230000e+00
TDG0  TX2v  1  3.520000e-01  1.050000e+00
TDG0  TX1v  1  3.520000e-01  1.050000e+00
TDG0  TX1vq  1  3.400000e-01  1.510000e+00
TDG0  TX2vq  1  3.400000e-01  1.510000e+00
TDG0  TX3vq  1  3.400000e-01  1.770000e+00
TDG0  TX4vq  1  3.400000e-01  1.770000e+00
TDG0  TC1vq  1  3.520000e-01  1.050000e+00
TDG0  TC2vq  1  3.400000e-01  1.230000e+00
TDG0  TC3vq  1  3.400000e-01  1.510000e+00
TDG0  TC4vq  1  3.400000e-01  1.770000e+00
TDG0  TC5vq  1  3.400000e-01  1.770000e+00
TDG0  TC6vq  1  3.400000e-01  2.020000e+00
TDG0  TX1vh  1  3.520000e-01  1.050000e+00
TDG0  TX2vh  1  3.520000e-01  1.050000e+00
TDG0  TX3vh  1  3.400000e-01  1.230000e+00
TDG0  TX4vh  1  3.400000e-01  1.230000e+00
TDG0  TC1vh  1  3.850000e-01  8.550000e-01
TDG0  TC2vh  1  3.660000e-01  9.350000e-01
TDG0  TC3vh  1  3.520000e-01  1.050000e+00
TDG0  TC4vh  1  3.400000e-01  1.230000e+00
TDG0  TC5vh  1  3.400000e-01  1.230000e+00
TDG0  TC6vh  1  3.400000e-01  1.510000e+00
TDG0  TX1vr  1  3.520000e-01  1.050000e+00
TDG0  TX2vr  1  3.520000e-01  1.050000e+00
TDG0  TX3vr  1  3.400000e-01  1.230000e+00
TDG0  TX4vr  1  3.400000e-01  1.230000e+00
TDG0  TC1vr  1  3.850000e-01  8.550000e-01
TDG0  TC2vr  1  3.660000e-01  9.350000e-01
TDG0  TC3vr  1  3.520000e-01  1.050000e+00
TDG0  TC4vr  1  3.400000e-01  1.230000e+00
TDG0  TC5vr  1  3.400000e-01  1.230000e+00
TDG0  TC6vr  1  3.400000e-01  1.510000e+00
TDG0  TN1dq  1  3.400000e-01  2.020000e+00
TDG0  TN1dh  1  3.400000e-01  1.510000e+00
TDG0  TN1dr  1  3.400000e-01  1.510000e+00
TP6d  TDG0  1  3.660000e-01  9.350000e-01
TP5d  TDG0  1  3.660000e-01  9.350000e-01
TP4d  TDG0  1  3.520000e-01  1.050000e+00
TP3d  TDG0  1  3.400000e-01  1.230000e+00
TP2d  TDG0  1  3.400000e-01  1.230000e+00
TP1d  TDG0  1  3.400000e-01  1.230000e+00
TN6d  TDG0  1  3.400000e-01  1.230000e+00
TN5d  TDG0  1  3.400000e-01  1.230000e+00
TN4d  TDG0  1  3.400000e-01  1.230000e+00
TN3d  TDG0  1  3.400000e-01  1.230000e+00
TN2d  TDG0  1  3.400000e-01  1.230000e+00
TDG0  TN1d  1  3.400000e-01  1.510000e+00
TP6q  TDG0  1  3.400000e-01  1.230000e+00
TP5q  TDG0  1  3.400000e-01  1.230000e+00
TP4q  TDG0  1  3.400000e-01  1.510000e+00
TP3q  TDG0  1  3.400000e-01  1.770000e+00
TP2q  TDG0  1  3.400000e-01  2.020000e+00
TP1q  TDG0  1  3.400000e-01  2.020000e+00
TN6q  TDG0  1  3.400000e-01  2.020000e+00
TN5q  TDG0  1  3.400000e-01  2.020000e+00
TN4q  TDG0  1  3.400000e-01  2.020000e+00
TN3q  TDG0  1  3.400000e-01  2.020000e+00
TN2q  TDG0  1  3.400000e-01  2.020000e+00
TN1q  TDG0  1  3.400000e-01  2.280000e+00
TDG0  TC6q  1  3.400000e-01  2.280000e+00
TDG0  TC5q  1  3.400000e-01  2.020000e+00
TDG0  TC4q  1  3.400000e-01  2.020000e+00
TDG0  TC3q  1  3.400000e-01  1.770000e+00
TDG0  TC2q  1  3.400000e-01  1.510000e+00
TDG0  TC1q  1  3.400000e-01  1.230000e+00
TDG0  TX4q  1  3.400000e-01  2.020000e+00
TDG0  TX3q  1  3.400000e-01  2.020000e+00
TDG0  TX2q  1  3.400000e-01  1.770000e+00
TDG0  TX1q  1  3.400000e-01  1.770000e+00
TP6h  TDG0  1  3.660000e-01  9.350000e-01
TP5h  TDG0  1  3.660000e-01  9.350000e-01
TP4h  TDG0  1  3.520000e-01  1.050000e+00
TP3h  TDG0  1  3.400000e-01  1.230000e+00
TP2h  TDG0  1  3.400000e-01  1.510000e+00
TP1h  TDG0  1  3.400000e-01  1.510000e+00
TN6h  TDG0  1  3.400000e-01  1.510000e+00
TN5h  TDG0  1  3.400000e-01  1.510000e+00
TN4h  TDG0  1  3.400000e-01  1.510000e+00
TN3h  TDG0  1  3.400000e-01  1.510000e+00
TN2h  TDG0  1  3.400000e-01  1.510000e+00
TN1h  TDG0  1  3.400000e-01  1.770000e+00
TDG0  TC6h  1  3.400000e-01  1.770000e+00
TDG0  TC5h  1  3.400000e-01  1.510000e+00
TDG0  TC4h  1  3.400000e-01  1.510000e+00
TDG0  TC3h  1  3.400000e-01  1.230000e+00
TDG0  TC2h  1  3.520000e-01  1.050000e+00
TDG0  TC1h  1  3.660000e-01  9.350000e-01
TDG0  TX4h  1  3.400000e-01  1.510000e+00
TDG0  TX3h  1  3.400000e-01  1.510000e+00
TDG0  TX2h  1  3.400000e-01  1.230000e+00
TDG0  TX1h  1  3.400000e-01  1.230000e+00
TP6r  TDG0  1  3.660000e-01  9.350000e-01
TP5r  TDG0  1  3.660000e-01  9.350000e-01
TP4r  TDG0  1  3.520000e-01  1.050000e+00
TP3r  TDG0  1  3.400000e-01  1.230000e+00
TP2r  TDG0  1  3.400000e-01  1.510000e+00
TP1r  TDG0  1  3.400000e-01  1.510000e+00
TN6r  TDG0  1  3.400000e-01  1.510000e+00
TN5r  TDG0  1  3.400000e-01  1.510000e+00
TN4r  TDG0  1  3.400000e-01  1.510000e+00
TN3r  TDG0  1  3.400000e-01  1.510000e+00
TN2r  TDG0  1  3.400000e-01  1.510000e+00
TN1r  TDG0  1  3.400000e-01  1.770000e+00
TDG0  TC6r  1  3.400000e-01  1.770000e+00
TDG0  TC5r  1  3.400000e-01  1.510000e+00
TDG0  TC4r  1  3.400000e-01  1.510000e+00
TDG0  TC3r  1  3.400000e-01  1.230000e+00
TDG0  TC2r  1  3.520000e-01  1.050000e+00
TDG0  TC1r  1  3.660000e-01  9.350000e-01
TDG0  TX4r  1  3.400000e-01  1.510000e+00
TDG0  TX3r  1  3.400000e-01  1.510000e+00
TDG0  TX2r  1  3.400000e-01  1.230000e+00
TDG0  TX1r  1  3.400000e-01  1.230000e+00
TP6dq  TDG0  1  3.400000e-01  1.230000e+00
TP5dq  TDG0  1  3.400000e-01  1.230000e+00
TP4dq  TDG0  1  3.400000e-01  1.510000e+00
TP3dq  TDG0  1  3.400000e-01  1.770000e+00
TP2dq  TDG0  1  3.400000e-01  1.770000e+00
TP1dq  TDG0  1  3.400000e-01  1.770000e+00
TN6dq  TDG0  1  3.400000e-01  1.770000e+00
TN5dq  TDG0  1  3.400000e-01  1.770000e+00
TN4dq  TDG0  1  3.400000e-01  1.770000e+00
TN3dq  TDG0  1  3.400000e-01  1.770000e+00
TN2dq  TDG0  1  3.400000e-01  1.770000e+00
TP6dh  TDG0  1  3.660000e-01  9.350000e-01
TP5dh  TDG0  1  3.660000e-01  9.350000e-01
TP4dh  TDG0  1  3.520000e-01  1.050000e+00
TP3dh  TDG0  1  3.400000e-01  1.230000e+00
TP2dh  TDG0  1  3.400000e-01  1.230000e+00
TP1dh  TDG0  1  3.400000e-01  1.230000e+00
TN6dh  TDG0  1  3.400000e-01  1.230000e+00
TN5dh  TDG0  1  3.400000e-01  1.230000e+00
TN4dh  TDG0  1  3.400000e-01  1.230000e+00
TN3dh  TDG0  1  3.400000e-01  1.230000e+00
TN2dh  TDG0  1  3.400000e-01  1.230000e+00
TP6dr  TDG0  1  3.660000e-01  9.350000e-01
TP5dr  TDG0  1  3.660000e-01  9.350000e-01
TP4dr  TDG0  1  3.520000e-01  1.050000e+00
TP3dr  TDG0  1  3.400000e-01  1.230000e+00
TP2dr  TDG0  1  3.400000e-01  1.230000e+00
TP1dr  TDG0  1  3.400000e-01  1.230000e+00
TN6dr  TDG0  1  3.400000e-01  1.230000e+00
TN5dr  TDG0  1  3.400000e-01  1.230000e+00
TN4dr  TDG0  1  3.400000e-01  1.230000e+00
TN3dr  TDG0  1  3.400000e-01  1.230000e+00
TN2dr  TDG0  1  3.400000e-01  1.230000e+00
W  TDG0  1  3.850000e-01  1.550000e+00
SW  TDG0  1  3.750000e-01  1.130000e+00
TW  TDG0  1  3.530000e-01  1.330000e+00
TDG0  D  1  3.950000e-01  2.580000e+00
TDG0  SD  1  3.650000e-01  7.023000e+00
TDG0  TD  1  3.400000e-01  8.279000e+00
TDG0  Q5  1  3.950000e-01  3.232000e+00
TDG0  SQ5  1  3.650000e-01  4.174000e+00
TDG0  TQ5  1  3.400000e-01  5.810000e+00
TDG0  Q5p  1  3.950000e-01  2.992000e+00
TDG0  SQ5p  1  3.650000e-01  3.944000e+00
TDG0  TQ5p  1  3.400000e-01  5.550000e+00
TDG0  Q5n  1  3.950000e-01  3.722000e+00
TDG0  SQ5n  1  3.650000e-01  4.704000e+00
TDG0  TQ5n  1  3.400000e-01  6.520000e+00
TDG0  Q4  1  3.950000e-01  3.250000e+00
TDG0  SQ4  1  3.650000e-01  4.271000e+00
TDG0  TQ4  1  3.400000e-01  6.022000e+00
TDG0  Q4p  1  3.950000e-01  3.010000e+00
TDG0  SQ4p  1  3.650000e-01  4.041000e+00
TDG0  TQ4p  1  3.400000e-01  5.762000e+00
TDG0  Q4n  1  3.950000e-01  3.740000e+00
TDG0  SQ4n  1  3.650000e-01  4.801000e+00
TDG0  TQ4n  1  3.400000e-01  6.732000e+00
TDG0  Q3  1  3.950000e-01  3.282000e+00
TDG0  SQ3  1  3.650000e-01  4.448000e+00
TDG0  TQ3  1  3.400000e-01  6.411000e+00
TDG0  Q3p  1  3.950000e-01  3.042000e+00
TDG0  SQ3p  1  3.650000e-01  4.218000e+00
TDG0  TQ3p  1  3.400000e-01  6.151000e+00
TDG0  Q3n  1  3.950000e-01  3.772000e+00
TDG0  SQ3n  1  3.650000e-01  4.978000e+00
TDG0  TQ3n  1  3.400000e-01  7.121000e+00
TDG0  Q2  1  3.950000e-01  3.306000e+00
TDG0  SQ2  1  3.650000e-01  4.576000e+00
TDG0  TQ2  1  3.400000e-01  6.694000e+00
TDG0  Q2p  1  3.950000e-01  3.066000e+00
TDG0  SQ2p  1  3.650000e-01  4.346000e+00
TDG0  TQ2p  1  3.400000e-01  6.434000e+00
TDG0  Q2n  1  3.950000e-01  3.796000e+00
TDG0  SQ2n  1  3.650000e-01  5.106000e+00
TDG0  TQ2n  1  3.400000e-01  7.404000e+00
TDG0  Q1  1  3.950000e-01  3.086000e+00
TDG0  SQ1  1  3.650000e-01  4.458000e+00
TDG0  TQ1  1  3.400000e-01  6.679000e+00
TDG0  Q1p  1  3.950000e-01  2.886000e+00
TDG0  SQ1p  1  3.650000e-01  4.228000e+00
TDG0  TQ1p  1  3.400000e-01  6.429000e+00
TDG0  Q1n  1  3.950000e-01  3.576000e+00
TDG0  SQ1n  1  3.650000e-01  4.948000e+00
TDG0  TQ1n  1  3.400000e-01  7.399000e+00
P6  TDG1  1  3.950000e-01  2.110000e+00
SP6  TDG1  1  3.650000e-01  1.750000e+00
TP6  TDG1  1  3.400000e-01  1.230000e+00
P5  TDG1  1  3.950000e-01  2.110000e+00
SP5  TDG1  1  3.650000e-01  1.750000e+00
TP5  TDG1  1  3.400000e-01  1.230000e+00
P4  TDG1  1  3.950000e-01  2.310000e+00
SP4  TDG1  1  3.650000e-01  1.910000e+00
TP4  TDG1  1  3.400000e-01  1.510000e+00
P3  TDG1  1  3.950000e-01  2.310000e+00
SP3  TDG1  1  3.650000e-01  1.910000e+00
TP3  TDG1  1  3.400000e-01  1.510000e+00
P2  TDG1  1  3.950000e-01  2.310000e+00
SP2  TDG1  1  3.650000e-01  1.910000e+00
TP2  TDG1  1  3.400000e-01  1.510000e+00
P1  TDG1  1  3.950000e-01  2.310000e+00
SP1  TDG1  1  3.650000e-01  1.910000e+00
TP1  TDG1  1  3.400000e-01  1.510000e+00
N6  TDG1  1  3.950000e-01  2.500000e+00
SN6  TDG1  1  3.650000e-01  2.110000e+00
TN6  TDG1  1  3.400000e-01  1.770000e+00
N5  TDG1  1  3.950000e-01  2.500000e+00
SN5  TDG1  1  3.650000e-01  2.110000e+00
TN5  TDG1  1  3.400000e-01  1.770000e+00
N4  TDG1  1  3.950000e-01  2.500000e+00
SN4  TDG1  1  3.650000e-01  2.110000e+00
TN4  TDG1  1  3.400000e-01  1.770000e+00
N3  TDG1  1  3.950000e-01  2.500000e+00
SN3  TDG1  1  3.650000e-01  2.110000e+00
TN3  TDG1  1  3.400000e-01  1.770000e+00
TDG1  N2  1  3.950000e-01  2.500000e+00
TDG1  SN2  1  3.650000e-01  2.110000e+00
TDG1  TN2  1  3.400000e-01  1.770000e+00
TDG1  N1  1  3.950000e-01  2.310000e+00
TDG1  SN1  1  3.650000e-01  1.910000e+00
TDG1  TN1  1  3.400000e-01  1.510000e+00
TDG1  C6  1  3.950000e-01  2.310000e+00
TDG1  SC6  1  3.650000e-01  1.910000e+00
TDG1  TC6  1  3.400000e-01  1.510000e+00
TDG1  C5  1  3.950000e-01  2.110000e+00
TDG1  SC5  1  3.650000e-01  1.750000e+00
TDG1  TC5  1  3.400000e-01  1.230000e+00
TDG1  C4  1  3.950000e-01  2.110000e+00
TDG1  SC4  1  3.650000e-01  1.750000e+00
TDG1  TC4  1  3.400000e-01  1.230000e+00
TDG1  C3  1  3.950000e-01  1.850000e+00
TDG1  SC3  1  3.660000e-01  1.600000e+00
TDG1  TC3  1  3.520000e-01  1.050000e+00
TDG1  C2  1  3.950000e-01  1.850000e+00
TDG1  SC2  1  3.660000e-01  1.600000e+00
TDG1  TC2  1  3.520000e-01  1.050000e+00
TDG1  C1  1  3.950000e-01  1.670000e+00
TDG1  SC1  1  3.780000e-01  1.450000e+00
TDG1  TC1  1  3.660000e-01  9.350000e-01
TDG1  X4  1  3.950000e-01  2.500000e+00
TDG1  SX4  1  3.650000e-01  2.110000e+00
TDG1  TX4  1  3.400000e-01  1.770000e+00
TDG1  X3  1  3.950000e-01  2.310000e+00
TDG1  SX3  1  3.650000e-01  1.910000e+00
TDG1  TX3  1  3.400000e-01  1.510000e+00
TDG1  X2  1  3.950000e-01  2.110000e+00
TDG1  SX2  1  3.650000e-01  1.750000e+00
TDG1  TX2  1  3.400000e-01  1.230000e+00
TDG1  X1  1  3.950000e-01  2.110000e+00
TDG1  SX1  1  3.650000e-01  1.750000e+00
TDG1  TX1  1  3.400000e-01  1.230000e+00
SP6a  TDG1  1  3.650000e-01  1.750000e+00
SP5a  TDG1  1  3.650000e-01  1.750000e+00
SP4a  TDG1  1  3.650000e-01  1.750000e+00
SP3a  TDG1  1  3.650000e-01  1.750000e+00
SP2a  TDG1  1  3.650000e-01  1.750000e+00
SP1a  TDG1  1  3.650000e-01  1.750000e+00
SN6a  TDG1  1  3.650000e-01  1.910000e+00
SN5a  TDG1  1  3.650000e-01  1.910000e+00
SN4a  TDG1  1  3.650000e-01  1.910000e+00
SN3a  TDG1  1  3.650000e-01  1.910000e+00
SP6d  TDG1  1  3.650000e-01  1.750000e+00
SP5d  TDG1  1  3.650000e-01  1.750000e+00
SP4d  TDG1  1  3.650000e-01  2.110000e+00
SP3d  TDG1  1  3.650000e-01  2.110000e+00
SP2d  TDG1  1  3.650000e-01  2.110000e+00
SP1d  TDG1  1  3.650000e-01  2.110000e+00
SN6d  TDG1  1  3.650000e-01  2.340000e+00
SN5d  TDG1  1  3.650000e-01  2.340000e+00
SN4d  TDG1  1  3.650000e-01  2.340000e+00
SN3d  TDG1  1  3.650000e-01  2.340000e+00
SP6q  TDG1  1  3.650000e-01  2.110000e+00
SP5q  TDG1  1  3.650000e-01  2.110000e+00
SP4q  TDG1  1  3.650000e-01  2.340000e+00
SP3q  TDG1  1  3.650000e-01  2.340000e+00
SP2q  TDG1  1  3.650000e-01  2.340000e+00
SP1q  TDG1  1  3.650000e-01  2.340000e+00
SN6q  TDG1  1  3.650000e-01  2.570000e+00
SN5q  TDG1  1  3.650000e-01  2.570000e+00
SN4q  TDG1  1  3.650000e-01  2.570000e+00
SN3q  TDG1  1  3.650000e-01  2.570000e+00
SP6h  TDG1  1  3.650000e-01  1.750000e+00
SP5h  TDG1  1  3.650000e-01  1.750000e+00
SP4h  TDG1  1  3.650000e-01  1.910000e+00
SP3h  TDG1  1  3.650000e-01  1.910000e+00
SP2h  TDG1  1  3.650000e-01  1.910000e+00
SP1h  TDG1  1  3.650000e-01  1.910000e+00
SN6h  TDG1  1  3.650000e-01  2.110000e+00
SN5h  TDG1  1  3.650000e-01  2.110000e+00
SN4h  TDG1  1  3.650000e-01  2.110000e+00
SN3h  TDG1  1  3.650000e-01  2.110000e+00
SP6r  TDG1  1  3.650000e-01  1.750000e+00
SP5r  TDG1  1  3.650000e-01  1.750000e+00
SP4r  TDG1  1  3.650000e-01  1.910000e+00
SP3r  TDG1  1  3.650000e-01  1.910000e+00
SP2r  TDG1  1  3.650000e-01  1.910000e+00
SP1r  TDG1  1  3.650000e-01  1.910000e+00
SN6r  TDG1  1  3.650000e-01  2.110000e+00
SN5r  TDG1  1  3.650000e-01  2.110000e+00
SN4r  TDG1  1  3.650000e-01  2.110000e+00
SN3r  TDG1  1  3.650000e-01  2.110000e+00
SP6dq  TDG1  1  3.650000e-01  2.110000e+00
SP5dq  TDG1  1  3.650000e-01  2.110000e+00
SP4dq  TDG1  1  3.650000e-01  2.570000e+00
SP3dq  TDG1  1  3.650000e-01  2.570000e+00
SP2dq  TDG1  1  3.650000e-01  2.570000e+00
SP1dq  TDG1  1  3.650000e-01  2.570000e+00
SN6dq  TDG1  1  3.650000e-01  2.830000e+00
SN5dq  TDG1  1  3.650000e-01  2.830000e+00
SN4dq  TDG1  1  3.650000e-01  2.830000e+00
SN3dq  TDG1  1  3.650000e-01  2.830000e+00
SP6aq  TDG1  1  3.650000e-01  2.110000e+00
SP5aq  TDG1  1  3.650000e-01  2.110000e+00
SP4aq  TDG1  1  3.650000e-01  2.110000e+00
SP3aq  TDG1  1  3.650000e-01  2.110000e+00
SP2aq  TDG1  1  3.650000e-01  2.110000e+00
SP1aq  TDG1  1  3.650000e-01  2.110000e+00
SN6aq  TDG1  1  3.650000e-01  2.340000e+00
SN5aq  TDG1  1  3.650000e-01  2.340000e+00
SN4aq  TDG1  1  3.650000e-01  2.340000e+00
SP6dh  TDG1  1  3.650000e-01  1.750000e+00
SP5dh  TDG1  1  3.650000e-01  1.750000e+00
SP4dh  TDG1  1  3.650000e-01  2.110000e+00
SP3dh  TDG1  1  3.650000e-01  2.110000e+00
SP2dh  TDG1  1  3.650000e-01  2.110000e+00
SP1dh  TDG1  1  3.650000e-01  2.110000e+00
SN6dh  TDG1  1  3.650000e-01  2.340000e+00
SN5dh  TDG1  1  3.650000e-01  2.340000e+00
SN4dh  TDG1  1  3.650000e-01  2.340000e+00
SN3dh  TDG1  1  3.650000e-01  2.340000e+00
SP6ah  TDG1  1  3.650000e-01  1.750000e+00
SP5ah  TDG1  1  3.650000e-01  1.750000e+00
SP4ah  TDG1  1  3.650000e-01  1.750000e+00
SP3ah  TDG1  1  3.650000e-01  1.750000e+00
SP2ah  TDG1  1  3.650000e-01  1.750000e+00
SP1ah  TDG1  1  3.650000e-01  1.750000e+00
SN6ah  TDG1  1  3.650000e-01  1.910000e+00
SN5ah  TDG1  1  3.650000e-01  1.910000e+00
SN4ah  TDG1  1  3.650000e-01  1.910000e+00
SP6dr  TDG1  1  3.650000e-01  1.750000e+00
SP5dr  TDG1  1  3.650000e-01  1.750000e+00
SP4dr  TDG1  1  3.650000e-01  2.110000e+00
SP3dr  TDG1  1  3.650000e-01  2.110000e+00
SP2dr  TDG1  1  3.650000e-01  2.110000e+00
SP1dr  TDG1  1  3.650000e-01  2.110000e+00
SN6dr  TDG1  1  3.650000e-01  2.340000e+00
SN5dr  TDG1  1  3.650000e-01  2.340000e+00
SN4dr  TDG1  1  3.650000e-01  2.340000e+00
SN3dr  TDG1  1  3.650000e-01  2.340000e+00
SP6ar  TDG1  1  3.650000e-01  1.750000e+00
SP5ar  TDG1  1  3.650000e-01  1.750000e+00
SP4ar  TDG1  1  3.650000e-01  1.750000e+00
SP3ar  TDG1  1  3.650000e-01  1.750000e+00
SP2ar  TDG1  1  3.650000e-01  1.750000e+00
SP1ar  TDG1  1  3.650000e-01  1.750000e+00
SN6ar  TDG1  1  3.650000e-01  1.910000e+00
SN5ar  TDG1  1  3.650000e-01  1.910000e+00
SN4ar  TDG1  1  3.650000e-01  1.910000e+00
TDG1  SN2dq  1  3.650000e-01  2.830000e+00
TDG1  SN1dq  1  3.650000e-01  2.570000e+00
TDG1  SN3aq  1  3.650000e-01  2.340000e+00
TDG1  SX1eq  1  3.650000e-01  1.910000e+00
TDG1  SX2eq  1  3.650000e-01  1.910000e+00
TDG1  SX3eq  1  3.650000e-01  2.110000e+00
TDG1  SX4eq  1  3.650000e-01  2.340000e+00
TDG1  SC1eq  1  3.660000e-01  1.600000e+00
TDG1  SC2eq  1  3.650000e-01  1.750000e+00
TDG1  SC3eq  1  3.650000e-01  1.750000e+00
TDG1  SC4eq  1  3.650000e-01  1.910000e+00
TDG1  SC5eq  1  3.650000e-01  1.910000e+00
TDG1  SC6eq  1  3.650000e-01  2.110000e+00
TDG1  SX1vq  1  3.650000e-01  2.340000e+00
TDG1  SX2vq  1  3.650000e-01  2.340000e+00
TDG1  SX3vq  1  3.650000e-01  2.570000e+00
TDG1  SX4vq  1  3.650000e-01  2.830000e+00
TDG1  SC1vq  1  3.650000e-01  1.910000e+00
TDG1  SC2vq  1  3.650000e-01  2.110000e+00
TDG1  SC3vq  1  3.650000e-01  2.110000e+00
TDG1  SC4vq  1  3.650000e-01  2.340000e+00
TDG1  SC5vq  1  3.650000e-01  2.340000e+00
TDG1  SC6vq  1  3.650000e-01  2.570000e+00
TDG1  SN1aq  1  3.650000e-01  2.110000e+00
TDG1  SN2aq  1  3.650000e-01  2.340000e+00
TDG1  SN2dh  1  3.650000e-01  2.340000e+00
TDG1  SN1dh  1  3.650000e-01  2.110000e+00
TDG1  SN3ah  1  3.650000e-01  1.910000e+00
TDG1  SX1eh  1  3.660000e-01  1.600000e+00
TDG1  SX2eh  1  3.660000e-01  1.600000e+00
TDG1  SX3eh  1  3.650000e-01  1.750000e+00
TDG1  SX4eh  1  3.650000e-01  1.910000e+00
TDG1  SC1eh  1  3.940000e-01  1.290000e+00
TDG1  SC2eh  1  3.780000e-01  1.450000e+00
TDG1  SC3eh  1  3.780000e-01  1.450000e+00
TDG1  SC4eh  1  3.660000e-01  1.600000e+00
TDG1  SC5eh  1  3.660000e-01  1.600000e+00
TDG1  SC6eh  1  3.650000e-01  1.750000e+00
TDG1  SX1vh  1  3.650000e-01  1.910000e+00
TDG1  SX2vh  1  3.650000e-01  1.910000e+00
TDG1  SX3vh  1  3.650000e-01  2.110000e+00
TDG1  SX4vh  1  3.650000e-01  2.340000e+00
TDG1  SC1vh  1  3.660000e-01  1.600000e+00
TDG1  SC2vh  1  3.650000e-01  1.750000e+00
TDG1  SC3vh  1  3.650000e-01  1.750000e+00
TDG1  SC4vh  1  3.650000e-01  1.910000e+00
TDG1  SC5vh  1  3.650000e-01  1.910000e+00
TDG1  SC6vh  1  3.650000e-01  2.110000e+00
TDG1  SN1ah  1  3.650000e-01  1.750000e+00
TDG1  SN2ah  1  3.650000e-01  1.910000e+00
TDG1  SN2dr  1  3.650000e-01  2.340000e+00
TDG1  SN1dr  1  3.650000e-01  2.110000e+00
TDG1  SN3ar  1  3.650000e-01  1.910000e+00
TDG1  SX1er  1  3.660000e-01  1.600000e+00
TDG1  SX2er  1  3.660000e-01  1.600000e+00
TDG1  SX3er  1  3.650000e-01  1.750000e+00
TDG1  SX4er  1  3.650000e-01  1.910000e+00
TDG1  SC1er  1  3.940000e-01  1.290000e+00
TDG1  SC2er  1  3.780000e-01  1.450000e+00
TDG1  SC3er  1  3.780000e-01  1.450000e+00
TDG1  SC4er  1  3.660000e-01  1.600000e+00
TDG1  SC5er  1  3.660000e-01  1.600000e+00
TDG1  SC6er  1  3.650000e-01  1.750000e+00
TDG1  SX1vr  1  3.650000e-01  1.910000e+00
TDG1  SX2vr  1  3.650000e-01  1.910000e+00
TDG1  SX3vr  1  3.650000e-01  2.110000e+00
TDG1  SX4vr  1  3.650000e-01  2.340000e+00
TDG1  SC1vr  1  3.660000e-01  1.600000e+00
TDG1  SC2vr  1  3.650000e-01  1.750000e+00
TDG1  SC3vr  1  3.650000e-01  1.750000e+00
TDG1  SC4vr  1  3.650000e-01  1.910000e+00
TDG1  SC5vr  1  3.650000e-01  1.910000e+00
TDG1  SC6vr  1  3.650000e-01  2.110000e+00
TDG1  SN1ar  1  3.650000e-01  1.750000e+00
TDG1  SN2ar  1  3.650000e-01  1.910000e+00
TDG1  SN2a  1  3.650000e-01  1.910000e+00
TDG1  SN1a  1  3.650000e-01  1.750000e+00
TDG1  SN2d  1  3.650000e-01  2.340000e+00
TDG1  SN1d  1  3.650000e-01  2.110000e+00
TDG1  SC6v  1  3.650000e-01  2.110000e+00
TDG1  SC5v  1  3.650000e-01  1.910000e+00
TDG1  SC4v  1  3.650000e-01  1.910000e+00
TDG1  SC3v  1  3.650000e-01  1.750000e+00
TDG1  SC2v  1  3.650000e-01  1.750000e+00
TDG1  SC1v  1  3.660000e-01  1.600000e+00
TDG1  SX4v  1  3.650000e-01  2.340000e+00
TDG1  SX3v  1  3.650000e-01  2.110000e+00
TDG1  SX2v  1  3.650000e-01  1.910000e+00
TDG1  SX1v  1  3.650000e-01  1.910000e+00
TDG1  SC6e  1  3.650000e-01  1.750000e+00
TDG1  SC5e  1  3.660000e-01  1.600000e+00
TDG1  SC4e  1  3.660000e-01  1.600000e+00
TDG1  SC3e  1  3.780000e-01  1.450000e+00
TDG1  SC2e  1  3.780000e-01  1.450000e+00
TDG1  SC1e  1  3.940000e-01  1.290000e+00
TDG1  SX4e  1  3.650000e-01  1.910000e+00
TDG1  SX3e  1  3.650000e-01  1.750000e+00
TDG1  SX2e  1  3.660000e-01  1.600000e+00
TDG1  SX1e  1  3.660000e-01  1.600000e+00
TDG1  SN2q  1  3.650000e-01  2.570000e+00
TDG1  SN1q  1  3.650000e-01  2.340000e+00
TDG1  SC6q  1  3.650000e-01  2.340000e+00
TDG1  SC5q  1  3.650000e-01  2.110000e+00
TDG1  SC4q  1  3.650000e-01  2.110000e+00
TDG1  SC3q  1  3.650000e-01  1.910000e+00
TDG1  SC2q  1  3.650000e-01  1.910000e+00
TDG1  SC1q  1  3.650000e-01  1.750000e+00
TDG1  SX4q  1  3.650000e-01  2.570000e+00
TDG1  SX3q  1  3.650000e-01  2.340000e+00
TDG1  SX2q  1  3.650000e-01  2.110000e+00
TDG1  SX1q  1  3.650000e-01  2.110000e+00
TDG1  SN2h  1  3.650000e-01  2.110000e+00
TDG1  SN1h  1  3.650000e-01  1.910000e+00
TDG1  SC6h  1  3.650000e-01  1.910000e+00
TDG1  SC5h  1  3.650000e-01  1.750000e+00
TDG1  SC4h  1  3.650000e-01  1.750000e+00
TDG1  SC3h  1  3.660000e-01  1.600000e+00
TDG1  SC2h  1  3.660000e-01  1.600000e+00
TDG1  SC1h  1  3.780000e-01  1.450000e+00
TDG1  SX4h  1  3.650000e-01  2.110000e+00
TDG1  SX3h  1  3.650000e-01  1.910000e+00
TDG1  SX2h  1  3.650000e-01  1.750000e+00
TDG1  SX1h  1  3.650000e-01  1.750000e+00
TDG1  SN2r  1  3.650000e-01  2.110000e+00
TDG1  SN1r  1  3.650000e-01  1.910000e+00
TDG1  SC6r  1  3.650000e-01  1.910000e+00
TDG1  SC5r  1  3.650000e-01  1.750000e+00
TDG1  SC4r  1  3.650000e-01  1.750000e+00
TDG1  SC3r  1  3.660000e-01  1.600000e+00
TDG1  SC2r  1  3.660000e-01  1.600000e+00
TDG1  SC1r  1  3.780000e-01  1.450000e+00
TDG1  SX4r  1  3.650000e-01  2.110000e+00
TDG1  SX3r  1  3.650000e-01  1.910000e+00
TDG1  SX2r  1  3.650000e-01  1.750000e+00
TDG1  SX1r  1  3.650000e-01  1.750000e+00
P6a  TDG1  1  3.950000e-01  2.110000e+00
P5a  TDG1  1  3.950000e-01  2.110000e+00
P4a  TDG1  1  3.950000e-01  2.110000e+00
P3a  TDG1  1  3.950000e-01  2.110000e+00
P2a  TDG1  1  3.950000e-01  2.110000e+00
P1a  TDG1  1  3.950000e-01  2.110000e+00
N6a  TDG1  1  3.950000e-01  2.310000e+00
N5a  TDG1  1  3.950000e-01  2.310000e+00
N4a  TDG1  1  3.950000e-01  2.310000e+00
N3a  TDG1  1  3.950000e-01  2.310000e+00
P6d  TDG1  1  3.950000e-01  2.110000e+00
P5d  TDG1  1  3.950000e-01  2.110000e+00
P4d  TDG1  1  3.950000e-01  2.500000e+00
P3d  TDG1  1  3.950000e-01  2.500000e+00
P2d  TDG1  1  3.950000e-01  2.500000e+00
P1d  TDG1  1  3.950000e-01  2.500000e+00
N6d  TDG1  1  3.950000e-01  2.700000e+00
N5d  TDG1  1  3.950000e-01  2.700000e+00
N4d  TDG1  1  3.950000e-01  2.700000e+00
N3d  TDG1  1  3.950000e-01  2.700000e+00
P6q  TDG1  1  3.950000e-01  2.500000e+00
P5q  TDG1  1  3.950000e-01  2.500000e+00
P4q  TDG1  1  3.950000e-01  2.700000e+00
P3q  TDG1  1  3.950000e-01  2.700000e+00
P2q  TDG1  1  3.950000e-01  2.700000e+00
P1q  TDG1  1  3.950000e-01  2.700000e+00
N6q  TDG1  1  3.950000e-01  2.940000e+00
N5q  TDG1  1  3.950000e-01  2.940000e+00
N4q  TDG1  1  3.950000e-01  2.940000e+00
N3q  TDG1  1  3.950000e-01  2.940000e+00
P6dq  TDG1  1  3.950000e-01  2.500000e+00
P5dq  TDG1  1  3.950000e-01  2.500000e+00
P4dq  TDG1  1  3.950000e-01  2.940000e+00
P3dq  TDG1  1  3.950000e-01  2.940000e+00
P2dq  TDG1  1  3.950000e-01  2.940000e+00
P1dq  TDG1  1  3.950000e-01  2.940000e+00
N6dq  TDG1  1  3.950000e-01  3.190000e+00
N5dq  TDG1  1  3.950000e-01  3.190000e+00
N4dq  TDG1  1  3.950000e-01  3.190000e+00
N3dq  TDG1  1  3.950000e-01  3.190000e+00
P6aq  TDG1  1  3.950000e-01  2.500000e+00
P5aq  TDG1  1  3.950000e-01  2.500000e+00
P4aq  TDG1  1  3.950000e-01  2.500000e+00
P3aq  TDG1  1  3.950000e-01  2.500000e+00
P2aq  TDG1  1  3.950000e-01  2.500000e+00
P1aq  TDG1  1  3.950000e-01  2.500000e+00
N6aq  TDG1  1  3.950000e-01  2.700000e+00
N5aq  TDG1  1  3.950000e-01  2.700000e+00
N4aq  TDG1  1  3.950000e-01  2.700000e+00
P6h  TDG1  1  3.950000e-01  2.110000e+00
P5h  TDG1  1  3.950000e-01  2.110000e+00
P4h  TDG1  1  3.950000e-01  2.310000e+00
P3h  TDG1  1  3.950000e-01  2.310000e+00
P2h  TDG1  1  3.950000e-01  2.310000e+00
P1h  TDG1  1  3.950000e-01  2.310000e+00
N6h  TDG1  1  3.950000e-01  2.500000e+00
N5h  TDG1  1  3.950000e-01  2.500000e+00
N4h  TDG1  1  3.950000e-01  2.500000e+00
N3h  TDG1  1  3.950000e-01  2.500000e+00
P6dh  TDG1  1  3.950000e-01  2.110000e+00
P5dh  TDG1  1  3.950000e-01  2.110000e+00
P4dh  TDG1  1  3.950000e-01  2.500000e+00
P3dh  TDG1  1  3.950000e-01  2.500000e+00
P2dh  TDG1  1  3.950000e-01  2.500000e+00
P1dh  TDG1  1  3.950000e-01  2.500000e+00
N6dh  TDG1  1  3.950000e-01  2.700000e+00
N5dh  TDG1  1  3.950000e-01  2.700000e+00
N4dh  TDG1  1  3.950000e-01  2.700000e+00
N3dh  TDG1  1  3.950000e-01  2.700000e+00
P6ah  TDG1  1  3.950000e-01  2.110000e+00
P5ah  TDG1  1  3.950000e-01  2.110000e+00
P4ah  TDG1  1  3.950000e-01  2.110000e+00
P3ah  TDG1  1  3.950000e-01  2.110000e+00
P2ah  TDG1  1  3.950000e-01  2.110000e+00
P1ah  TDG1  1  3.950000e-01  2.110000e+00
N6ah  TDG1  1  3.950000e-01  2.310000e+00
N5ah  TDG1  1  3.950000e-01  2.310000e+00
N4ah  TDG1  1  3.950000e-01  2.310000e+00
P6r  TDG1  1  3.950000e-01  2.110000e+00
P5r  TDG1  1  3.950000e-01  2.110000e+00
P4r  TDG1  1  3.950000e-01  2.310000e+00
P3r  TDG1  1  3.950000e-01  2.310000e+00
P2r  TDG1  1  3.950000e-01  2.310000e+00
P1r  TDG1  1  3.950000e-01  2.310000e+00
N6r  TDG1  1  3.950000e-01  2.500000e+00
N5r  TDG1  1  3.950000e-01  2.500000e+00
N4r  TDG1  1  3.950000e-01  2.500000e+00
N3r  TDG1  1  3.950000e-01  2.500000e+00
P6dr  TDG1  1  3.950000e-01  2.110000e+00
P5dr  TDG1  1  3.950000e-01  2.110000e+00
P4dr  TDG1  1  3.950000e-01  2.500000e+00
P3dr  TDG1  1  3.950000e-01  2.500000e+00
P2dr  TDG1  1  3.950000e-01  2.500000e+00
P1dr  TDG1  1  3.950000e-01  2.500000e+00
N6dr  TDG1  1  3.950000e-01  2.700000e+00
N5dr  TDG1  1  3.950000e-01  2.700000e+00
N4dr  TDG1  1  3.950000e-01  2.700000e+00
N3dr  TDG1  1  3.950000e-01  2.700000e+00
P6ar  TDG1  1  3.950000e-01  2.110000e+00
P5ar  TDG1  1  3.950000e-01  2.110000e+00
P4ar  TDG1  1  3.950000e-01  2.110000e+00
P3ar  TDG1  1  3.950000e-01  2.110000e+00
P2ar  TDG1  1  3.950000e-01  2.110000e+00
P1ar  TDG1  1  3.950000e-01  2.110000e+00
N6ar  TDG1  1  3.950000e-01  2.310000e+00
N5ar  TDG1  1  3.950000e-01  2.310000e+00
N4ar  TDG1  1  3.950000e-01  2.310000e+00
TDG1  N2a  1  3.950000e-01  2.310000e+00
TDG1  N1a  1  3.950000e-01  2.110000e+00
TDG1  N2d  1  3.950000e-01  2.700000e+00
TDG1  N1d  1  3.950000e-01  2.500000e+00
TDG1  C6v  1  3.950000e-01  2.500000e+00
TDG1  C5v  1  3.950000e-01  2.310000e+00
TDG1  C4v  1  3.950000e-01  2.310000e+00
TDG1  C3v  1  3.950000e-01  2.110000e+00
TDG1  C2v  1  3.950000e-01  2.110000e+00
TDG1  C1v  1  3.950000e-01  1.850000e+00
TDG1  X4v  1  3.950000e-01  2.700000e+00
TDG1  X3v  1  3.950000e-01  2.500000e+00
TDG1  X2v  1  3.950000e-01  2.310000e+00
TDG1  X1v  1  3.950000e-01  2.310000e+00
TDG1  C6e  1  3.950000e-01  2.110000e+00
TDG1  C5e  1  3.950000e-01  1.850000e+00
TDG1  C4e  1  3.950000e-01  1.850000e+00
TDG1  C3e  1  3.950000e-01  1.670000e+00
TDG1  C2e  1  3.950000e-01  1.670000e+00
TDG1  C1e  1  3.980000e-01  1.450000e+00
TDG1  X4e  1  3.950000e-01  2.310000e+00
TDG1  X3e  1  3.950000e-01  2.110000e+00
TDG1  X2e  1  3.950000e-01  1.850000e+00
TDG1  X1e  1  3.950000e-01  1.850000e+00
TDG1  N2q  1  3.950000e-01  2.940000e+00
TDG1  N1q  1  3.950000e-01  2.700000e+00
TDG1  C6q  1  3.950000e-01  2.700000e+00
TDG1  C5q  1  3.950000e-01  2.500000e+00
TDG1  C4q  1  3.950000e-01  2.500000e+00
TDG1  C3q  1  3.950000e-01  2.310000e+00
TDG1  C2q  1  3.950000e-01  2.310000e+00
TDG1  C1q  1  3.950000e-01  2.110000e+00
TDG1  X4q  1  3.950000e-01  2.940000e+00
TDG1  X3q  1  3.950000e-01  2.700000e+00
TDG1  X2q  1  3.950000e-01  2.500000e+00
TDG1  X1q  1  3.950000e-01  2.500000e+00
TDG1  N2dq  1  3.950000e-01  3.190000e+00
TDG1  N1dq  1  3.950000e-01  2.940000e+00
TDG1  N3aq  1  3.950000e-01  2.700000e+00
TDG1  X1eq  1  3.950000e-01  2.310000e+00
TDG1  X2eq  1  3.950000e-01  2.310000e+00
TDG1  X3eq  1  3.950000e-01  2.500000e+00
TDG1  X4eq  1  3.950000e-01  2.700000e+00
TDG1  C1eq  1  3.950000e-01  1.850000e+00
TDG1  C2eq  1  3.950000e-01  2.110000e+00
TDG1  C3eq  1  3.950000e-01  2.110000e+00
TDG1  C4eq  1  3.950000e-01  2.310000e+00
TDG1  C5eq  1  3.950000e-01  2.310000e+00
TDG1  C6eq  1  3.950000e-01  2.500000e+00
TDG1  X1vq  1  3.950000e-01  2.700000e+00
TDG1  X2vq  1  3.950000e-01  2.700000e+00
TDG1  X3vq  1  3.950000e-01  2.940000e+00
TDG1  X4vq  1  3.950000e-01  3.190000e+00
TDG1  C1vq  1  3.950000e-01  2.310000e+00
TDG1  C2vq  1  3.950000e-01  2.500000e+00
TDG1  C3vq  1  3.950000e-01  2.500000e+00
TDG1  C4vq  1  3.950000e-01  2.700000e+00
TDG1  C5vq  1  3.950000e-01  2.700000e+00
TDG1  C6vq  1  3.950000e-01  2.940000e+00
TDG1  N1aq  1  3.950000e-01  2.500000e+00
TDG1  N2aq  1  3.950000e-01  2.700000e+00
TDG1  N2h  1  3.950000e-01  2.500000e+00
TDG1  N1h  1  3.950000e-01  2.310000e+00
TDG1  C6h  1  3.950000e-01  2.310000e+00
TDG1  C5h  1  3.950000e-01  2.110000e+00
TDG1  C4h  1  3.950000e-01  2.110000e+00
TDG1  C3h  1  3.950000e-01  1.850000e+00
TDG1  C2h  1  3.950000e-01  1.850000e+00
TDG1  C1h  1  3.950000e-01  1.670000e+00
TDG1  X4h  1  3.950000e-01  2.500000e+00
TDG1  X3h  1  3.950000e-01  2.310000e+00
TDG1  X2h  1  3.950000e-01  2.110000e+00
TDG1  X1h  1  3.950000e-01  2.110000e+00
TDG1  N2dh  1  3.950000e-01  2.700000e+00
TDG1  N1dh  1  3.950000e-01  2.500000e+00
TDG1  N3ah  1  3.950000e-01  2.310000e+00
TDG1  X1eh  1  3.950000e-01  1.850000e+00
TDG1  X2eh  1  3.950000e-01  1.850000e+00
TDG1  X3eh  1  3.950000e-01  2.110000e+00
TDG1  X4eh  1  3.950000e-01  2.310000e+00
TDG1  C1eh  1  3.980000e-01  1.450000e+00
TDG1  C2eh  1  3.950000e-01  1.670000e+00
TDG1  C3eh  1  3.950000e-01  1.670000e+00
TDG1  C4eh  1  3.950000e-01  1.850000e+00
TDG1  C5eh  1  3.950000e-01  1.850000e+00
TDG1  C6eh  1  3.950000e-01  2.110000e+00
TDG1  X1vh  1  3.950000e-01  2.310000e+00
TDG1  X2vh  1  3.950000e-01  2.310000e+00
TDG1  X3vh  1  3.950000e-01  2.500000e+00
TDG1  X4vh  1  3.950000e-01  2.700000e+00
TDG1  C1vh  1  3.950000e-01  1.850000e+00
TDG1  C2vh  1  3.950000e-01  2.110000e+00
TDG1  C3vh  1  3.950000e-01  2.110000e+00
TDG1  C4vh  1  3.950000e-01  2.310000e+00
TDG1  C5vh  1  3.950000e-01  2.310000e+00
TDG1  C6vh  1  3.950000e-01  2.500000e+00
TDG1  N1ah  1  3.950000e-01  2.110000e+00
TDG1  N2ah  1  3.950000e-01  2.310000e+00
TDG1  N2r  1  3.950000e-01  2.500000e+00
TDG1  N1r  1  3.950000e-01  2.310000e+00
TDG1  C6r  1  3.950000e-01  2.310000e+00
TDG1  C5r  1  3.950000e-01  2.110000e+00
TDG1  C4r  1  3.950000e-01  2.110000e+00
TDG1  C3r  1  3.950000e-01  1.850000e+00
TDG1  C2r  1  3.950000e-01  1.850000e+00
TDG1  C1r  1  3.950000e-01  1.670000e+00
TDG1  X4r  1  3.950000e-01  2.500000e+00
TDG1  X3r  1  3.950000e-01  2.310000e+00
TDG1  X2r  1  3.950000e-01  2.110000e+00
TDG1  X1r  1  3.950000e-01  2.110000e+00
TDG1  N2dr  1  3.950000e-01  2.700000e+00
TDG1  N1dr  1  3.950000e-01  2.500000e+00
TDG1  N3ar  1  3.950000e-01  2.310000e+00
TDG1  X1er  1  3.950000e-01  1.850000e+00
TDG1  X2er  1  3.950000e-01  1.850000e+00
TDG1  X3er  1  3.950000e-01  2.110000e+00
TDG1  X4er  1  3.950000e-01  2.310000e+00
TDG1  C1er  1  3.980000e-01  1.450000e+00
TDG1  C2er  1  3.950000e-01  1.670000e+00
TDG1  C3er  1  3.950000e-01  1.670000e+00
TDG1  C4er  1  3.950000e-01  1.850000e+00
TDG1  C5er  1  3.950000e-01  1.850000e+00
TDG1  C6er  1  3.950000e-01  2.110000e+00
TDG1  X1vr  1  3.950000e-01  2.310000e+00
TDG1  X2vr  1  3.950000e-01  2.310000e+00
TDG1  X3vr  1  3.950000e-01  2.500000e+00
TDG1  X4vr  1  3.950000e-01  2.700000e+00
TDG1  C1vr  1  3.950000e-01  1.850000e+00
TDG1  C2vr  1  3.950000e-01  2.110000e+00
TDG1  C3vr  1  3.950000e-01  2.110000e+00
TDG1  C4vr  1  3.950000e-01  2.310000e+00
TDG1  C5vr  1  3.950000e-01  2.310000e+00
TDG1  C6vr  1  3.950000e-01  2.500000e+00
TDG1  N1ar  1  3.950000e-01  2.110000e+00
TDG1  N2ar  1  3.950000e-01  2.310000e+00
TP6d  TDG1  1  3.400000e-01  1.230000e+00
TP5d  TDG1  1  3.400000e-01  1.230000e+00
TP4d  TDG1  1  3.400000e-01  2.280000e+00
TP3d  TDG1  1  3.400000e-01  2.280000e+00
TP2d  TDG1  1  3.400000e-01  2.280000e+00
TP1d  TDG1  1  3.400000e-01  2.280000e+00
TN6d  TDG1  1  3.400000e-01  2.500000e+00
TN5d  TDG1  1  3.400000e-01  2.500000e+00
TN4d  TDG1  1  3.400000e-01  2.500000e+00
TN3d  TDG1  1  3.400000e-01  2.500000e+00
TP6dq  TDG1  1  3.400000e-01  2.280000e+00
TP5dq  TDG1  1  3.400000e-01  2.280000e+00
TP4dq  TDG1  1  3.400000e-01  2.740000e+00
TP3dq  TDG1  1  3.400000e-01  2.740000e+00
TP2dq  TDG1  1  3.400000e-01  2.740000e+00
TP1dq  TDG1  1  3.400000e-01  2.740000e+00
TN6dq  TDG1  1  3.400000e-01  2.990000e+00
TN5dq  TDG1  1  3.400000e-01  2.990000e+00
TN4dq  TDG1  1  3.400000e-01  2.990000e+00
TN3dq  TDG1  1  3.400000e-01  2.990000e+00
TP6dh  TDG1  1  3.400000e-01  1.230000e+00
TP5dh  TDG1  1  3.400000e-01  1.230000e+00
TP4dh  TDG1  1  3.400000e-01  2.280000e+00
TP3dh  TDG1  1  3.400000e-01  2.280000e+00
TP2dh  TDG1  1  3.400000e-01  2.280000e+00
TP1dh  TDG1  1  3.400000e-01  2.280000e+00
TN6dh  TDG1  1  3.400000e-01  2.500000e+00
TN5dh  TDG1  1  3.400000e-01  2.500000e+00
TN4dh  TDG1  1  3.400000e-01  2.500000e+00
TN3dh  TDG1  1  3.400000e-01  2.500000e+00
TP6dr  TDG1  1  3.400000e-01  1.230000e+00
TP5dr  TDG1  1  3.400000e-01  1.230000e+00
TP4dr  TDG1  1  3.400000e-01  2.280000e+00
TP3dr  TDG1  1  3.400000e-01  2.280000e+00
TP2dr  TDG1  1  3.400000e-01  2.280000e+00
TP1dr  TDG1  1  3.400000e-01  2.280000e+00
TN6dr  TDG1  1  3.400000e-01  2.500000e+00
TN5dr  TDG1  1  3.400000e-01  2.500000e+00
TN4dr  TDG1  1  3.400000e-01  2.500000e+00
TN3dr  TDG1  1  3.400000e-01  2.500000e+00
TDG1  TN2d  1  3.400000e-01  2.500000e+00
TDG1  TN1d  1  3.400000e-01  2.280000e+00
TDG1  TN2dq  1  3.400000e-01  2.990000e+00
TDG1  TN1dq  1  3.400000e-01  2.740000e+00
TDG1  TN2dh  1  3.400000e-01  2.500000e+00
TDG1  TN1dh  1  3.400000e-01  2.280000e+00
TDG1  TN2dr  1  3.400000e-01  2.500000e+00
TDG1  TN1dr  1  3.400000e-01  2.280000e+00
TDG1  TC6v  1  3.400000e-01  1.770000e+00
TDG1  TC5v  1  3.400000e-01  1.510000e+00
TDG1  TC4v  1  3.400000e-01  1.510000e+00
TDG1  TC3v  1  3.400000e-01  1.230000e+00
TDG1  TC2v  1  3.400000e-01  1.230000e+00
TDG1  TC1v  1  3.520000e-01  1.050000e+00
TDG1  TX4v  1  3.400000e-01  2.020000e+00
TDG1  TX3v  1  3.400000e-01  1.770000e+00
TDG1  TX2v  1  3.400000e-01  1.510000e+00
TDG1  TX1v  1  3.400000e-01  1.510000e+00
TDG1  TX1vq  1  3.400000e-01  2.020000e+00
TDG1  TX2vq  1  3.400000e-01  2.020000e+00
TDG1  TX3vq  1  3.400000e-01  2.280000e+00
TDG1  TX4vq  1  3.400000e-01  2.500000e+00
TDG1  TC1vq  1  3.400000e-01  1.510000e+00
TDG1  TC2vq  1  3.400000e-01  1.770000e+00
TDG1  TC3vq  1  3.400000e-01  1.770000e+00
TDG1  TC4vq  1  3.400000e-01  2.020000e+00
TDG1  TC5vq  1  3.400000e-01  2.020000e+00
TDG1  TC6vq  1  3.400000e-01  2.280000e+00
TDG1  TX1vh  1  3.400000e-01  1.510000e+00
TDG1  TX2vh  1  3.400000e-01  1.510000e+00
TDG1  TX3vh  1  3.400000e-01  1.770000e+00
TDG1  TX4vh  1  3.400000e-01  2.020000e+00
TDG1  TC1vh  1  3.520000e-01  1.050000e+00
TDG1  TC2vh  1  3.400000e-01  1.230000e+00
TDG1  TC3vh  1  3.400000e-01  1.230000e+00
TDG1  TC4vh  1  3.400000e-01  1.510000e+00
TDG1  TC5vh  1  3.400000e-01  1.510000e+00
TDG1  TC6vh  1  3.400000e-01  1.770000e+00
TDG1  TX1vr  1  3.400000e-01  1.510000e+00
TDG1  TX2vr  1  3.400000e-01  1.510000e+00
TDG1  TX3vr  1  3.400000e-01  1.770000e+00
TDG1  TX4vr  1  3.400000e-01  2.020000e+00
TDG1  TC1vr  1  3.520000e-01  1.050000e+00
TDG1  TC2vr  1  3.400000e-01  1.230000e+00
TDG1  TC3vr  1  3.400000e-01  1.230000e+00
TDG1  TC4vr  1  3.400000e-01  1.510000e+00
TDG1  TC5vr  1  3.400000e-01  1.510000e+00
TDG1  TC6vr  1  3.400000e-01  1.770000e+00
TDG1  TC6e  1  3.400000e-01  1.230000e+00
TDG1  TC5e  1  3.520000e-01  1.050000e+00
TDG1  TC4e  1  3.520000e-01  1.050000e+00
TDG1  TC3e  1  3.660000e-01  9.350000e-01
TDG1  TC2e  1  3.660000e-01  9.350000e-01
TDG1  TC1e  1  3.850000e-01  8.550000e-01
TDG1  TX4e  1  3.400000e-01  1.510000e+00
TDG1  TX3e  1  3.400000e-01  1.230000e+00
TDG1  TX2e  1  3.520000e-01  1.050000e+00
TDG1  TX1e  1  3.520000e-01  1.050000e+00
TDG1  TX1eq  1  3.400000e-01  1.510000e+00
TDG1  TX2eq  1  3.400000e-01  1.510000e+00
TDG1  TX3eq  1  3.400000e-01  1.770000e+00
TDG1  TX4eq  1  3.400000e-01  2.020000e+00
TDG1  TC1eq  1  3.520000e-01  1.050000e+00
TDG1  TC2eq  1  3.400000e-01  1.230000e+00
TDG1  TC3eq  1  3.400000e-01  1.230000e+00
TDG1  TC4eq  1  3.400000e-01  1.510000e+00
TDG1  TC5eq  1  3.400000e-01  1.510000e+00
TDG1  TC6eq  1  3.400000e-01  1.770000e+00
TDG1  TX1eh  1  3.520000e-01  1.050000e+00
TDG1  TX2eh  1  3.520000e-01  1.050000e+00
TDG1  TX3eh  1  3.400000e-01  1.230000e+00
TDG1  TX4eh  1  3.400000e-01  1.510000e+00
TDG1  TC1eh  1  3.850000e-01  8.550000e-01
TDG1  TC2eh  1  3.660000e-01  9.350000e-01
TDG1  TC3eh  1  3.660000e-01  9.350000e-01
TDG1  TC4eh  1  3.520000e-01  1.050000e+00
TDG1  TC5eh  1  3.520000e-01  1.050000e+00
TDG1  TC6eh  1  3.400000e-01  1.230000e+00
TDG1  TX1er  1  3.520000e-01  1.050000e+00
TDG1  TX2er  1  3.520000e-01  1.050000e+00
TDG1  TX3er  1  3.400000e-01  1.230000e+00
TDG1  TX4er  1  3.400000e-01  1.510000e+00
TDG1  TC1er  1  3.850000e-01  8.550000e-01
TDG1  TC2er  1  3.660000e-01  9.350000e-01
TDG1  TC3er  1  3.660000e-01  9.350000e-01
TDG1  TC4er  1  3.520000e-01  1.050000e+00
TDG1  TC5er  1  3.520000e-01  1.050000e+00
TDG1  TC6er  1  3.400000e-01  1.230000e+00
TDG1  TN3aq  1  3.400000e-01  2.020000e+00
TDG1  TN1aq  1  3.400000e-01  1.770000e+00
TDG1  TN2aq  1  3.400000e-01  2.020000e+00
TDG1  TN3ah  1  3.400000e-01  1.510000e+00
TDG1  TN1ah  1  3.400000e-01  1.230000e+00
TDG1  TN2ah  1  3.400000e-01  1.510000e+00
TDG1  TN3ar  1  3.400000e-01  1.510000e+00
TDG1  TN1ar  1  3.400000e-01  1.230000e+00
TDG1  TN2ar  1  3.400000e-01  1.510000e+00
TP6a  TDG1  1  3.400000e-01  1.230000e+00
TP5a  TDG1  1  3.400000e-01  1.230000e+00
TP4a  TDG1  1  3.400000e-01  1.230000e+00
TP3a  TDG1  1  3.400000e-01  1.230000e+00
TP2a  TDG1  1  3.400000e-01  1.230000e+00
TP1a  TDG1  1  3.400000e-01  1.230000e+00
TN6a  TDG1  1  3.400000e-01  1.510000e+00
TN5a  TDG1  1  3.400000e-01  1.510000e+00
TN4a  TDG1  1  3.400000e-01  1.510000e+00
TDG1  TN3a  1  3.400000e-01  1.510000e+00
TDG1  TN2a  1  3.400000e-01  1.510000e+00
TDG1  TN1a  1  3.400000e-01  1.230000e+00
TP6q  TDG1  1  3.400000e-01  1.770000e+00
TP5q  TDG1  1  3.400000e-01  1.770000e+00
TP4q  TDG1  1  3.400000e-01  2.020000e+00
TP3q  TDG1  1  3.400000e-01  2.020000e+00
TP2q  TDG1  1  3.400000e-01  2.020000e+00
TP1q  TDG1  1  3.400000e-01  2.020000e+00
TN6q  TDG1  1  3.400000e-01  2.280000e+00
TN5q  TDG1  1  3.400000e-01  2.280000e+00
TN4q  TDG1  1  3.400000e-01  2.280000e+00
TN3q  TDG1  1  3.400000e-01  2.280000e+00
TDG1  TN2q  1  3.400000e-01  2.280000e+00
TDG1  TN1q  1  3.400000e-01  2.020000e+00
TDG1  TC6q  1  3.400000e-01  2.020000e+00
TDG1  TC5q  1  3.400000e-01  1.770000e+00
TDG1  TC4q  1  3.400000e-01  1.770000e+00
TDG1  TC3q  1  3.400000e-01  1.510000e+00
TDG1  TC2q  1  3.400000e-01  1.510000e+00
TDG1  TC1q  1  3.400000e-01  1.230000e+00
TDG1  TX4q  1  3.400000e-01  2.280000e+00
TDG1  TX3q  1  3.400000e-01  2.020000e+00
TDG1  TX2q  1  3.400000e-01  1.770000e+00
TDG1  TX1q  1  3.400000e-01  1.770000e+00
TP6h  TDG1  1  3.400000e-01  1.230000e+00
TP5h  TDG1  1  3.400000e-01  1.230000e+00
TP4h  TDG1  1  3.400000e-01  1.510000e+00
TP3h  TDG1  1  3.400000e-01  1.510000e+00
TP2h  TDG1  1  3.400000e-01  1.510000e+00
TP1h  TDG1  1  3.400000e-01  1.510000e+00
TN6h  TDG1  1  3.400000e-01  1.770000e+00
TN5h  TDG1  1  3.400000e-01  1.770000e+00
TN4h  TDG1  1  3.400000e-01  1.770000e+00
TN3h  TDG1  1  3.400000e-01  1.770000e+00
TDG1  TN2h  1  3.400000e-01  1.770000e+00
TDG1  TN1h  1  3.400000e-01  1.510000e+00
TDG1  TC6h  1  3.400000e-01  1.510000e+00
TDG1  TC5h  1  3.400000e-01  1.230000e+00
TDG1  TC4h  1  3.400000e-01  1.230000e+00
TDG1  TC3h  1  3.520000e-01  1.050000e+00
TDG1  TC2h  1  3.520000e-01  1.050000e+00
TDG1  TC1h  1  3.660000e-01  9.350000e-01
TDG1  TX4h  1  3.400000e-01  1.770000e+00
TDG1  TX3h  1  3.400000e-01  1.510000e+00
TDG1  TX2h  1  3.400000e-01  1.230000e+00
TDG1  TX1h  1  3.400000e-01  1.230000e+00
TP6r  TDG1  1  3.400000e-01  1.230000e+00
TP5r  TDG1  1  3.400000e-01  1.230000e+00
TP4r  TDG1  1  3.400000e-01  1.510000e+00
TP3r  TDG1  1  3.400000e-01  1.510000e+00
TP2r  TDG1  1  3.400000e-01  1.510000e+00
TP1r  TDG1  1  3.400000e-01  1.510000e+00
TN6r  TDG1  1  3.400000e-01  1.770000e+00
TN5r  TDG1  1  3.400000e-01  1.770000e+00
TN4r  TDG1  1  3.400000e-01  1.770000e+00
TN3r  TDG1  1  3.400000e-01  1.770000e+00
TDG1  TN2r  1  3.400000e-01  1.770000e+00
TDG1  TN1r  1  3.400000e-01  1.510000e+00
TDG1  TC6r  1  3.400000e-01  1.510000e+00
TDG1  TC5r  1  3.400000e-01  1.230000e+00
TDG1  TC4r  1  3.400000e-01  1.230000e+00
TDG1  TC3r  1  3.520000e-01  1.050000e+00
TDG1  TC2r  1  3.520000e-01  1.050000e+00
TDG1  TC1r  1  3.660000e-01  9.350000e-01
TDG1  TX4r  1  3.400000e-01  1.770000e+00
TDG1  TX3r  1  3.400000e-01  1.510000e+00
TDG1  TX2r  1  3.400000e-01  1.230000e+00
TDG1  TX1r  1  3.400000e-01  1.230000e+00
TP6aq  TDG1  1  3.400000e-01  1.770000e+00
TP5aq  TDG1  1  3.400000e-01  1.770000e+00
TP4aq  TDG1  1  3.400000e-01  1.770000e+00
TP3aq  TDG1  1  3.400000e-01  1.770000e+00
TP2aq  TDG1  1  3.400000e-01  1.770000e+00
TP1aq  TDG1  1  3.400000e-01  1.770000e+00
TN6aq  TDG1  1  3.400000e-01  2.020000e+00
TN5aq  TDG1  1  3.400000e-01  2.020000e+00
TN4aq  TDG1  1  3.400000e-01  2.020000e+00
TP6ah  TDG1  1  3.400000e-01  1.230000e+00
TP5ah  TDG1  1  3.400000e-01  1.230000e+00
TP4ah  TDG1  1  3.400000e-01  1.230000e+00
TP3ah  TDG1  1  3.400000e-01  1.230000e+00
TP2ah  TDG1  1  3.400000e-01  1.230000e+00
TP1ah  TDG1  1  3.400000e-01  1.230000e+00
TN6ah  TDG1  1  3.400000e-01  1.510000e+00
TN5ah  TDG1  1  3.400000e-01  1.510000e+00
TN4ah  TDG1  1  3.400000e-01  1.510000e+00
TP6ar  TDG1  1  3.400000e-01  1.230000e+00
TP5ar  TDG1  1  3.400000e-01  1.230000e+00
TP4ar  TDG1  1  3.400000e-01  1.230000e+00
TP3ar  TDG1  1  3.400000e-01  1.230000e+00
TP2ar  TDG1  1  3.400000e-01  1.230000e+00
TP1ar  TDG1  1  3.400000e-01  1.230000e+00
TN6ar  TDG1  1  3.400000e-01  1.510000e+00
TN5ar  TDG1  1  3.400000e-01  1.510000e+00
TN4ar  TDG1  1  3.400000e-01  1.510000e+00
W  TDG1  1  3.850000e-01  2.510000e+00
SW  TDG1  1  3.750000e-01  1.870000e+00
TW  TDG1  1  3.450000e-01  1.910000e+00
TDG1  D  1  3.950000e-01  3.963000e+00
TDG1  SD  1  3.650000e-01  9.083000e+00
TDG1  TD  1  3.400000e-01  1.073700e+01
TDG1  Q5  1  3.950000e-01  3.516000e+00
TDG1  SQ5  1  3.650000e-01  4.617000e+00
TDG1  TQ5  1  3.400000e-01  6.431000e+00
TDG1  Q5p  1  3.950000e-01  3.996000e+00
TDG1  SQ5p  1  3.650000e-01  5.157000e+00
TDG1  TQ5p  1  3.400000e-01  7.151000e+00
TDG1  Q5n  1  3.950000e-01  3.266000e+00
TDG1  SQ5n  1  3.650000e-01  4.357000e+00
TDG1  TQ5n  1  3.400000e-01  6.211000e+00
TDG1  Q4  1  3.950000e-01  3.277000e+00
TDG1  SQ4  1  3.650000e-01  4.419000e+00
TDG1  TQ4  1  3.400000e-01  6.348000e+00
TDG1  Q4p  1  3.950000e-01  3.767000e+00
TDG1  SQ4p  1  3.650000e-01  4.949000e+00
TDG1  TQ4p  1  3.400000e-01  7.058000e+00
TDG1  Q4n  1  3.950000e-01  3.037000e+00
TDG1  SQ4n  1  3.650000e-01  4.189000e+00
TDG1  TQ4n  1  3.400000e-01  6.088000e+00
TDG1  Q3  1  3.950000e-01  3.304000e+00
TDG1  SQ3  1  3.650000e-01  4.566000e+00
TDG1  TQ3  1  3.400000e-01  6.671000e+00
TDG1  Q3p  1  3.950000e-01  3.794000e+00
TDG1  SQ3p  1  3.650000e-01  5.096000e+00
TDG1  TQ3p  1  3.400000e-01  7.381000e+00
TDG1  Q3n  1  3.950000e-01  3.064000e+00
TDG1  SQ3n  1  3.650000e-01  4.336000e+00
TDG1  TQ3n  1  3.400000e-01  6.411000e+00
TDG1  Q2  1  3.950000e-01  3.322000e+00
TDG1  SQ2  1  3.650000e-01  4.669000e+00
TDG1  TQ2  1  3.400000e-01  6.897000e+00
TDG1  Q2p  1  3.950000e-01  3.812000e+00
TDG1  SQ2p  1  3.650000e-01  5.199000e+00
TDG1  TQ2p  1  3.400000e-01  7.607000e+00
TDG1  Q2n  1  3.950000e-01  3.082000e+00
TDG1  SQ2n  1  3.650000e-01  4.439000e+00
TDG1  TQ2n  1  3.400000e-01  6.637000e+00
TDG1  Q1  1  3.950000e-01  3.587000e+00
TDG1  SQ1  1  3.650000e-01  5.011000e+00
TDG1  TQ1  1  3.400000e-01  7.298000e+00
TDG1  Q1p  1  3.950000e-01  4.067000e+00
TDG1  SQ1p  1  3.650000e-01  5.551000e+00
TDG1  TQ1p  1  3.400000e-01  8.018000e+00
TDG1  Q1n  1  3.950000e-01  3.337000e+00
TDG1  SQ1n  1  3.650000e-01  4.751000e+00
TDG1  TQ1n  1  3.400000e-01  7.078000e+00
P6  TDG2  1  3.950000e-01  3.190000e+00
SP6  TDG2  1  3.650000e-01  2.830000e+00
TP6  TDG2  1  3.400000e-01  2.500000e+00
P5  TDG2  1  3.950000e-01  2.940000e+00
SP5  TDG2  1  3.650000e-01  2.570000e+00
TP5  TDG2  1  3.400000e-01  2.280000e+00
P4  TDG2  1  3.950000e-01  2.940000e+00
SP4  TDG2  1  3.650000e-01  2.570000e+00
TP4  TDG2  1  3.400000e-01  2.280000e+00
P3  TDG2  1  3.950000e-01  2.940000e+00
SP3  TDG2  1  3.650000e-01  2.570000e+00
TP3  TDG2  1  3.400000e-01  2.280000e+00
P2  TDG2  1  3.950000e-01  2.940000e+00
SP2  TDG2  1  3.650000e-01  2.570000e+00
TP2  TDG2  1  3.400000e-01  2.280000e+00
P1  TDG2  1  3.950000e-01  2.940000e+00
SP1  TDG2  1  3.650000e-01  2.570000e+00
TP1  TDG2  1  3.400000e-01  2.280000e+00
TDG2  N6  1  3.950000e-01  2.940000e+00
TDG2  SN6  1  3.650000e-01  2.570000e+00
TDG2  TN6  1  3.400000e-01  2.280000e+00
TDG2  N5  1  3.950000e-01  2.700000e+00
TDG2  SN5  1  3.650000e-01  2.340000e+00
TDG2  TN5  1  3.400000e-01  2.020000e+00
TDG2  N4  1  3.950000e-01  2.700000e+00
TDG2  SN4  1  3.650000e-01  2.340000e+00
TDG2  TN4  1  3.400000e-01  2.020000e+00
TDG2  N3  1  3.950000e-01  2.310000e+00
TDG2  SN3  1  3.650000e-01  1.910000e+00
TDG2  TN3  1  3.400000e-01  1.510000e+00
TDG2  N2  1  3.950000e-01  2.310000e+00
TDG2  SN2  1  3.650000e-01  1.910000e+00
TDG2  TN2  1  3.400000e-01  1.510000e+00
TDG2  N1  1  3.950000e-01  2.310000e+00
TDG2  SN1  1  3.650000e-01  1.910000e+00
TDG2  TN1  1  3.400000e-01  1.510000e+00
TDG2  C6  1  3.950000e-01  2.110000e+00
TDG2  SC6  1  3.650000e-01  1.750000e+00
TDG2  TC6  1  3.400000e-01  1.230000e+00
TDG2  C5  1  3.950000e-01  1.850000e+00
TDG2  SC5  1  3.660000e-01  1.600000e+00
TDG2  TC5  1  3.520000e-01  1.050000e+00
TDG2  C4  1  3.950000e-01  1.670000e+00
TDG2  SC4  1  3.780000e-01  1.450000e+00
TDG2  TC4  1  3.660000e-01  9.350000e-01
TDG2  C3  1  3.980000e-01  1.450000e+00
TDG2  SC3  1  3.940000e-01  1.290000e+00
TDG2  TC3  1  3.850000e-01  8.550000e-01
TDG2  C2  1  3.980000e-01  1.450000e+00
TDG2  SC2  1  3.940000e-01  1.290000e+00
TDG2  TC2  1  3.850000e-01  8.550000e-01
TDG2  C1  1  3.990000e-01  1.180000e+00
TDG2  SC1  1  4.040000e-01  1.130000e+00
TDG2  TC1  1  4.110000e-01  8.010000e-01
TDG2  X4  1  3.950000e-01  2.110000e+00
TDG2  SX4  1  3.650000e-01  1.750000e+00
TDG2  TX4  1  3.400000e-01  1.230000e+00
TDG2  X3  1  3.950000e-01  2.110000e+00
TDG2  SX3  1  3.650000e-01  1.750000e+00
TDG2  TX3  1  3.400000e-01  1.230000e+00
TDG2  X2  1  3.950000e-01  1.850000e+00
TDG2  SX2  1  3.660000e-01  1.600000e+00
TDG2  TX2  1  3.520000e-01  1.050000e+00
TDG2  X1  1  3.950000e-01  1.670000e+00
TDG2  SX1  1  3.780000e-01  1.450000e+00
TDG2  TX1  1  3.660000e-01  9.350000e-01
SP6d  TDG2  1  3.650000e-01  2.570000e+00
SP5d  TDG2  1  3.650000e-01  2.340000e+00
SP4d  TDG2  1  3.650000e-01  2.340000e+00
SP3d  TDG2  1  3.650000e-01  2.340000e+00
SP2d  TDG2  1  3.650000e-01  2.340000e+00
SP1d  TDG2  1  3.650000e-01  2.340000e+00
SP6a  TDG2  1  3.650000e-01  3.100000e+00
SP5a  TDG2  1  3.650000e-01  2.830000e+00
SP4a  TDG2  1  3.650000e-01  2.830000e+00
SP3a  TDG2  1  3.650000e-01  2.830000e+00
SP2a  TDG2  1  3.650000e-01  2.830000e+00
SP6q  TDG2  1  3.650000e-01  3.370000e+00
SP5q  TDG2  1  3.650000e-01  3.100000e+00
SP4q  TDG2  1  3.650000e-01  3.100000e+00
SP3q  TDG2  1  3.650000e-01  3.100000e+00
SP2q  TDG2  1  3.650000e-01  3.100000e+00
SP1q  TDG2  1  3.650000e-01  3.100000e+00
SP6h  TDG2  1  3.650000e-01  2.830000e+00
SP5h  TDG2  1  3.650000e-01  2.570000e+00
SP4h  TDG2  1  3.650000e-01  2.570000e+00
SP3h  TDG2  1  3.650000e-01  2.570000e+00
SP2h  TDG2  1  3.650000e-01  2.570000e+00
SP1h  TDG2  1  3.650000e-01  2.570000e+00
SP6r  TDG2  1  3.650000e-01  2.830000e+00
SP5r  TDG2  1  3.650000e-01  2.570000e+00
SP4r  TDG2  1  3.650000e-01  2.570000e+00
SP3r  TDG2  1  3.650000e-01  2.570000e+00
SP2r  TDG2  1  3.650000e-01  2.570000e+00
SP1r  TDG2  1  3.650000e-01  2.570000e+00
SP6dq  TDG2  1  3.650000e-01  3.100000e+00
SP5dq  TDG2  1  3.650000e-01  2.830000e+00
SP4dq  TDG2  1  3.650000e-01  2.830000e+00
SP3dq  TDG2  1  3.650000e-01  2.830000e+00
SP2dq  TDG2  1  3.650000e-01  2.830000e+00
SP2aq  TDG2  1  3.650000e-01  3.370000e+00
SP3aq  TDG2  1  3.650000e-01  3.370000e+00
SP4aq  TDG2  1  3.650000e-01  3.370000e+00
SP5aq  TDG2  1  3.650000e-01  3.370000e+00
SP6aq  TDG2  1  3.650000e-01  3.640000e+00
SP6dh  TDG2  1  3.650000e-01  2.570000e+00
SP5dh  TDG2  1  3.650000e-01  2.340000e+00
SP4dh  TDG2  1  3.650000e-01  2.340000e+00
SP3dh  TDG2  1  3.650000e-01  2.340000e+00
SP2dh  TDG2  1  3.650000e-01  2.340000e+00
SP2ah  TDG2  1  3.650000e-01  2.830000e+00
SP3ah  TDG2  1  3.650000e-01  2.830000e+00
SP4ah  TDG2  1  3.650000e-01  2.830000e+00
SP5ah  TDG2  1  3.650000e-01  2.830000e+00
SP6ah  TDG2  1  3.650000e-01  3.100000e+00
SP6dr  TDG2  1  3.650000e-01  2.570000e+00
SP5dr  TDG2  1  3.650000e-01  2.340000e+00
SP4dr  TDG2  1  3.650000e-01  2.340000e+00
SP3dr  TDG2  1  3.650000e-01  2.340000e+00
SP2dr  TDG2  1  3.650000e-01  2.340000e+00
SP2ar  TDG2  1  3.650000e-01  2.830000e+00
SP3ar  TDG2  1  3.650000e-01  2.830000e+00
SP4ar  TDG2  1  3.650000e-01  2.830000e+00
SP5ar  TDG2  1  3.650000e-01  2.830000e+00
SP6ar  TDG2  1  3.650000e-01  3.100000e+00
TDG2  SP1dq  1  3.650000e-01  2.830000e+00
TDG2  SX1eq  1  3.650000e-01  1.910000e+00
TDG2  SX2eq  1  3.650000e-01  2.110000e+00
TDG2  SX3eq  1  3.650000e-01  2.340000e+00
TDG2  SX4eq  1  3.650000e-01  2.340000e+00
TDG2  SC1eq  1  3.660000e-01  1.600000e+00
TDG2  SC2eq  1  3.650000e-01  1.750000e+00
TDG2  SC3eq  1  3.650000e-01  1.750000e+00
TDG2  SC4eq  1  3.650000e-01  1.910000e+00
TDG2  SC5eq  1  3.650000e-01  2.110000e+00
TDG2  SC6eq  1  3.650000e-01  2.340000e+00
TDG2  SX1vq  1  3.660000e-01  1.600000e+00
TDG2  SX2vq  1  3.650000e-01  1.750000e+00
TDG2  SX3vq  1  3.650000e-01  1.910000e+00
TDG2  SX4vq  1  3.650000e-01  1.910000e+00
TDG2  SC1vq  1  3.940000e-01  1.290000e+00
TDG2  SC2vq  1  3.780000e-01  1.450000e+00
TDG2  SC3vq  1  3.780000e-01  1.450000e+00
TDG2  SC4vq  1  3.660000e-01  1.600000e+00
TDG2  SC5vq  1  3.650000e-01  1.750000e+00
TDG2  SC6vq  1  3.650000e-01  1.910000e+00
TDG2  SN1aq  1  3.650000e-01  2.570000e+00
TDG2  SN2aq  1  3.650000e-01  2.570000e+00
TDG2  SN3aq  1  3.650000e-01  2.570000e+00
TDG2  SN4aq  1  3.650000e-01  3.100000e+00
TDG2  SN5aq  1  3.650000e-01  3.100000e+00
TDG2  SN6aq  1  3.650000e-01  3.370000e+00
TDG2  SP1aq  1  3.650000e-01  3.370000e+00
TDG2  SN1dq  1  3.650000e-01  2.110000e+00
TDG2  SN2dq  1  3.650000e-01  2.110000e+00
TDG2  SN3dq  1  3.650000e-01  2.110000e+00
TDG2  SN4dq  1  3.650000e-01  2.570000e+00
TDG2  SN5dq  1  3.650000e-01  2.570000e+00
TDG2  SN6dq  1  3.650000e-01  2.830000e+00
TDG2  SP1dh  1  3.650000e-01  2.340000e+00
TDG2  SX1eh  1  3.660000e-01  1.600000e+00
TDG2  SX2eh  1  3.650000e-01  1.750000e+00
TDG2  SX3eh  1  3.650000e-01  1.910000e+00
TDG2  SX4eh  1  3.650000e-01  1.910000e+00
TDG2  SC1eh  1  3.940000e-01  1.290000e+00
TDG2  SC2eh  1  3.780000e-01  1.450000e+00
TDG2  SC3eh  1  3.780000e-01  1.450000e+00
TDG2  SC4eh  1  3.660000e-01  1.600000e+00
TDG2  SC5eh  1  3.650000e-01  1.750000e+00
TDG2  SC6eh  1  3.650000e-01  1.910000e+00
TDG2  SX1vh  1  3.940000e-01  1.290000e+00
TDG2  SX2vh  1  3.780000e-01  1.450000e+00
TDG2  SX3vh  1  3.660000e-01  1.600000e+00
TDG2  SX4vh  1  3.660000e-01  1.600000e+00
TDG2  SC1vh  1  4.090000e-01  1.080000e+00
TDG2  SC2vh  1  4.040000e-01  1.130000e+00
TDG2  SC3vh  1  4.040000e-01  1.130000e+00
TDG2  SC4vh  1  3.940000e-01  1.290000e+00
TDG2  SC5vh  1  3.780000e-01  1.450000e+00
TDG2  SC6vh  1  3.660000e-01  1.600000e+00
TDG2  SN1ah  1  3.650000e-01  2.110000e+00
TDG2  SN2ah  1  3.650000e-01  2.110000e+00
TDG2  SN3ah  1  3.650000e-01  2.110000e+00
TDG2  SN4ah  1  3.650000e-01  2.570000e+00
TDG2  SN5ah  1  3.650000e-01  2.570000e+00
TDG2  SN6ah  1  3.650000e-01  2.830000e+00
TDG2  SP1ah  1  3.650000e-01  2.830000e+00
TDG2  SN1dh  1  3.650000e-01  1.750000e+00
TDG2  SN2dh  1  3.650000e-01  1.750000e+00
TDG2  SN3dh  1  3.650000e-01  1.750000e+00
TDG2  SN4dh  1  3.650000e-01  2.110000e+00
TDG2  SN5dh  1  3.650000e-01  2.110000e+00
TDG2  SN6dh  1  3.650000e-01  2.340000e+00
TDG2  SP1dr  1  3.650000e-01  2.340000e+00
TDG2  SX1er  1  3.660000e-01  1.600000e+00
TDG2  SX2er  1  3.650000e-01  1.750000e+00
TDG2  SX3er  1  3.650000e-01  1.910000e+00
TDG2  SX4er  1  3.650000e-01  1.910000e+00
TDG2  SC1er  1  3.940000e-01  1.290000e+00
TDG2  SC2er  1  3.780000e-01  1.450000e+00
TDG2  SC3er  1  3.780000e-01  1.450000e+00
TDG2  SC4er  1  3.660000e-01  1.600000e+00
TDG2  SC5er  1  3.650000e-01  1.750000e+00
TDG2  SC6er  1  3.650000e-01  1.910000e+00
TDG2  SX1vr  1  3.940000e-01  1.290000e+00
TDG2  SX2vr  1  3.780000e-01  1.450000e+00
TDG2  SX3vr  1  3.660000e-01  1.600000e+00
TDG2  SX4vr  1  3.660000e-01  1.600000e+00
TDG2  SC1vr  1  4.090000e-01  1.080000e+00
TDG2  SC2vr  1  4.040000e-01  1.130000e+00
TDG2  SC3vr  1  4.040000e-01  1.130000e+00
TDG2  SC4vr  1  3.940000e-01  1.290000e+00
TDG2  SC5vr  1  3.780000e-01  1.450000e+00
TDG2  SC6vr  1  3.660000e-01  1.600000e+00
TDG2  SN1ar  1  3.650000e-01  2.110000e+00
TDG2  SN2ar  1  3.650000e-01  2.110000e+00
TDG2  SN3ar  1  3.650000e-01  2.110000e+00
TDG2  SN4ar  1  3.650000e-01  2.570000e+00
TDG2  SN5ar  1  3.650000e-01  2.570000e+00
TDG2  SN6ar  1  3.650000e-01  2.830000e+00
TDG2  SP1ar  1  3.650000e-01  2.830000e+00
TDG2  SN1dr  1  3.650000e-01  1.750000e+00
TDG2  SN2dr  1  3.650000e-01  1.750000e+00
TDG2  SN3dr  1  3.650000e-01  1.750000e+00
TDG2  SN4dr  1  3.650000e-01  2.110000e+00
TDG2  SN5dr  1  3.650000e-01  2.110000e+00
TDG2  SN6dr  1  3.650000e-01  2.340000e+00
TDG2  SN6d  1  3.650000e-01  2.340000e+00
TDG2  SN5d  1  3.650000e-01  2.110000e+00
TDG2  SN4d  1  3.650000e-01  2.110000e+00
TDG2  SN3d  1  3.650000e-01  1.750000e+00
TDG2  SN2d  1  3.650000e-01  1.750000e+00
TDG2  SN1d  1  3.650000e-01  1.750000e+00
TDG2  SP1a  1  3.650000e-01  2.830000e+00
TDG2  SN6a  1  3.650000e-01  2.830000e+00
TDG2  SN5a  1  3.650000e-01  2.570000e+00
TDG2  SN4a  1  3.650000e-01  2.570000e+00
TDG2  SN3a  1  3.650000e-01  2.110000e+00
TDG2  SN2a  1  3.650000e-01  2.110000e+00
TDG2  SN1a  1  3.650000e-01  2.110000e+00
TDG2  SC6e  1  3.650000e-01  1.910000e+00
TDG2  SC5e  1  3.650000e-01  1.750000e+00
TDG2  SC4e  1  3.660000e-01  1.600000e+00
TDG2  SC3e  1  3.780000e-01  1.450000e+00
TDG2  SC2e  1  3.780000e-01  1.450000e+00
TDG2  SC1e  1  3.940000e-01  1.290000e+00
TDG2  SX4e  1  3.650000e-01  1.910000e+00
TDG2  SX3e  1  3.650000e-01  1.910000e+00
TDG2  SX2e  1  3.650000e-01  1.750000e+00
TDG2  SX1e  1  3.660000e-01  1.600000e+00
TDG2  SC6v  1  3.660000e-01  1.600000e+00
TDG2  SC5v  1  3.780000e-01  1.450000e+00
TDG2  SC4v  1  3.940000e-01  1.290000e+00
TDG2  SC3v  1  4.040000e-01  1.130000e+00
TDG2  SC2v  1  4.040000e-01  1.130000e+00
TDG2  SC1v  1  4.090000e-01  1.080000e+00
TDG2  SX4v  1  3.660000e-01  1.600000e+00
TDG2  SX3v  1  3.660000e-01  1.600000e+00
TDG2  SX2v  1  3.780000e-01  1.450000e+00
TDG2  SX1v  1  3.940000e-01  1.290000e+00
TDG2  SN6q  1  3.650000e-01  3.100000e+00
TDG2  SN5q  1  3.650000e-01  2.830000e+00
TDG2  SN4q  1  3.650000e-01  2.830000e+00
TDG2  SN3q  1  3.650000e-01  2.340000e+00
TDG2  SN2q  1  3.650000e-01  2.340000e+00
TDG2  SN1q  1  3.650000e-01  2.340000e+00
TDG2  SC6q  1  3.650000e-01  2.110000e+00
TDG2  SC5q  1  3.650000e-01  1.910000e+00
TDG2  SC4q  1  3.650000e-01  1.750000e+00
TDG2  SC3q  1  3.660000e-01  1.600000e+00
TDG2  SC2q  1  3.660000e-01  1.600000e+00
TDG2  SC1q  1  3.780000e-01  1.450000e+00
TDG2  SX4q  1  3.650000e-01  2.110000e+00
TDG2  SX3q  1  3.650000e-01  2.110000e+00
TDG2  SX2q  1  3.650000e-01  1.910000e+00
TDG2  SX1q  1  3.650000e-01  1.750000e+00
TDG2  SN6h  1  3.650000e-01  2.570000e+00
TDG2  SN5h  1  3.650000e-01  2.340000e+00
TDG2  SN4h  1  3.650000e-01  2.340000e+00
TDG2  SN3h  1  3.650000e-01  1.910000e+00
TDG2  SN2h  1  3.650000e-01  1.910000e+00
TDG2  SN1h  1  3.650000e-01  1.910000e+00
TDG2  SC6h  1  3.650000e-01  1.750000e+00
TDG2  SC5h  1  3.660000e-01  1.600000e+00
TDG2  SC4h  1  3.780000e-01  1.450000e+00
TDG2  SC3h  1  3.940000e-01  1.290000e+00
TDG2  SC2h  1  3.940000e-01  1.290000e+00
TDG2  SC1h  1  4.040000e-01  1.130000e+00
TDG2  SX4h  1  3.650000e-01  1.750000e+00
TDG2  SX3h  1  3.650000e-01  1.750000e+00
TDG2  SX2h  1  3.660000e-01  1.600000e+00
TDG2  SX1h  1  3.780000e-01  1.450000e+00
TDG2  SN6r  1  3.650000e-01  2.570000e+00
TDG2  SN5r  1  3.650000e-01  2.340000e+00
TDG2  SN4r  1  3.650000e-01  2.340000e+00
TDG2  SN3r  1  3.650000e-01  1.910000e+00
TDG2  SN2r  1  3.650000e-01  1.910000e+00
TDG2  SN1r  1  3.650000e-01  1.910000e+00
TDG2  SC6r  1  3.650000e-01  1.750000e+00
TDG2  SC5r  1  3.660000e-01  1.600000e+00
TDG2  SC4r  1  3.780000e-01  1.450000e+00
TDG2  SC3r  1  3.940000e-01  1.290000e+00
TDG2  SC2r  1  3.940000e-01  1.290000e+00
TDG2  SC1r  1  4.040000e-01  1.130000e+00
TDG2  SX4r  1  3.650000e-01  1.750000e+00
TDG2  SX3r  1  3.650000e-01  1.750000e+00
TDG2  SX2r  1  3.660000e-01  1.600000e+00
TDG2  SX1r  1  3.780000e-01  1.450000e+00
P6d  TDG2  1  3.950000e-01  2.940000e+00
P5d  TDG2  1  3.950000e-01  2.700000e+00
P4d  TDG2  1  3.950000e-01  2.700000e+00
P3d  TDG2  1  3.950000e-01  2.700000e+00
P2d  TDG2  1  3.950000e-01  2.700000e+00
P1d  TDG2  1  3.950000e-01  2.700000e+00
P6a  TDG2  1  3.950000e-01  3.430000e+00
P5a  TDG2  1  3.950000e-01  3.190000e+00
P4a  TDG2  1  3.950000e-01  3.190000e+00
P3a  TDG2  1  3.950000e-01  3.190000e+00
P2a  TDG2  1  3.950000e-01  3.190000e+00
P6q  TDG2  1  3.950000e-01  3.670000e+00
P5q  TDG2  1  3.950000e-01  3.430000e+00
P4q  TDG2  1  3.950000e-01  3.430000e+00
P3q  TDG2  1  3.950000e-01  3.430000e+00
P2q  TDG2  1  3.950000e-01  3.430000e+00
P1q  TDG2  1  3.950000e-01  3.430000e+00
P6dq  TDG2  1  3.950000e-01  3.430000e+00
P5dq  TDG2  1  3.950000e-01  3.190000e+00
P4dq  TDG2  1  3.950000e-01  3.190000e+00
P3dq  TDG2  1  3.950000e-01  3.190000e+00
P2dq  TDG2  1  3.950000e-01  3.190000e+00
P2aq  TDG2  1  3.950000e-01  3.670000e+00
P3aq  TDG2  1  3.950000e-01  3.670000e+00
P4aq  TDG2  1  3.950000e-01  3.670000e+00
P5aq  TDG2  1  3.950000e-01  3.670000e+00
P6aq  TDG2  1  3.950000e-01  3.910000e+00
P6h  TDG2  1  3.950000e-01  3.190000e+00
P5h  TDG2  1  3.950000e-01  2.940000e+00
P4h  TDG2  1  3.950000e-01  2.940000e+00
P3h  TDG2  1  3.950000e-01  2.940000e+00
P2h  TDG2  1  3.950000e-01  2.940000e+00
P1h  TDG2  1  3.950000e-01  2.940000e+00
P6dh  TDG2  1  3.950000e-01  2.940000e+00
P5dh  TDG2  1  3.950000e-01  2.700000e+00
P4dh  TDG2  1  3.950000e-01  2.700000e+00
P3dh  TDG2  1  3.950000e-01  2.700000e+00
P2dh  TDG2  1  3.950000e-01  2.700000e+00
P2ah  TDG2  1  3.950000e-01  3.190000e+00
P3ah  TDG2  1  3.950000e-01  3.190000e+00
P4ah  TDG2  1  3.950000e-01  3.190000e+00
P5ah  TDG2  1  3.950000e-01  3.190000e+00
P6ah  TDG2  1  3.950000e-01  3.430000e+00
P6r  TDG2  1  3.950000e-01  3.190000e+00
P5r  TDG2  1  3.950000e-01  2.940000e+00
P4r  TDG2  1  3.950000e-01  2.940000e+00
P3r  TDG2  1  3.950000e-01  2.940000e+00
P2r  TDG2  1  3.950000e-01  2.940000e+00
P1r  TDG2  1  3.950000e-01  2.940000e+00
P6dr  TDG2  1  3.950000e-01  2.940000e+00
P5dr  TDG2  1  3.950000e-01  2.700000e+00
P4dr  TDG2  1  3.950000e-01  2.700000e+00
P3dr  TDG2  1  3.950000e-01  2.700000e+00
P2dr  TDG2  1  3.950000e-01  2.700000e+00
P2ar  TDG2  1  3.950000e-01  3.190000e+00
P3ar  TDG2  1  3.950000e-01  3.190000e+00
P4ar  TDG2  1  3.950000e-01  3.190000e+00
P5ar  TDG2  1  3.950000e-01  3.190000e+00
P6ar  TDG2  1  3.950000e-01  3.430000e+00
TDG2  N6d  1  3.950000e-01  2.700000e+00
TDG2  N5d  1  3.950000e-01  2.500000e+00
TDG2  N4d  1  3.950000e-01  2.500000e+00
TDG2  N3d  1  3.950000e-01  2.110000e+00
TDG2  N2d  1  3.950000e-01  2.110000e+00
TDG2  N1d  1  3.950000e-01  2.110000e+00
TDG2  P1a  1  3.950000e-01  3.190000e+00
TDG2  N6a  1  3.950000e-01  3.190000e+00
TDG2  N5a  1  3.950000e-01  2.940000e+00
TDG2  N4a  1  3.950000e-01  2.940000e+00
TDG2  N3a  1  3.950000e-01  2.500000e+00
TDG2  N2a  1  3.950000e-01  2.500000e+00
TDG2  N1a  1  3.950000e-01  2.500000e+00
TDG2  C6e  1  3.950000e-01  2.310000e+00
TDG2  C5e  1  3.950000e-01  2.110000e+00
TDG2  C4e  1  3.950000e-01  1.850000e+00
TDG2  C3e  1  3.950000e-01  1.670000e+00
TDG2  C2e  1  3.950000e-01  1.670000e+00
TDG2  C1e  1  3.980000e-01  1.450000e+00
TDG2  X4e  1  3.950000e-01  2.310000e+00
TDG2  X3e  1  3.950000e-01  2.310000e+00
TDG2  X2e  1  3.950000e-01  2.110000e+00
TDG2  X1e  1  3.950000e-01  1.850000e+00
TDG2  C6v  1  3.950000e-01  1.850000e+00
TDG2  C5v  1  3.950000e-01  1.670000e+00
TDG2  C4v  1  3.980000e-01  1.450000e+00
TDG2  C3v  1  3.990000e-01  1.180000e+00
TDG2  C2v  1  3.990000e-01  1.180000e+00
TDG2  C1v  1  4.010000e-01  9.830000e-01
TDG2  X4v  1  3.950000e-01  1.850000e+00
TDG2  X3v  1  3.950000e-01  1.850000e+00
TDG2  X2v  1  3.950000e-01  1.670000e+00
TDG2  X1v  1  3.980000e-01  1.450000e+00
TDG2  N6q  1  3.950000e-01  3.430000e+00
TDG2  N5q  1  3.950000e-01  3.190000e+00
TDG2  N4q  1  3.950000e-01  3.190000e+00
TDG2  N3q  1  3.950000e-01  2.700000e+00
TDG2  N2q  1  3.950000e-01  2.700000e+00
TDG2  N1q  1  3.950000e-01  2.700000e+00
TDG2  C6q  1  3.950000e-01  2.500000e+00
TDG2  C5q  1  3.950000e-01  2.310000e+00
TDG2  C4q  1  3.950000e-01  2.110000e+00
TDG2  C3q  1  3.950000e-01  1.850000e+00
TDG2  C2q  1  3.950000e-01  1.850000e+00
TDG2  C1q  1  3.950000e-01  1.670000e+00
TDG2  X4q  1  3.950000e-01  2.500000e+00
TDG2  X3q  1  3.950000e-01  2.500000e+00
TDG2  X2q  1  3.950000e-01  2.310000e+00
TDG2  X1q  1  3.950000e-01  2.110000e+00
TDG2  P1dq  1  3.950000e-01  3.190000e+00
TDG2  X1eq  1  3.950000e-01  2.310000e+00
TDG2  X2eq  1  3.950000e-01  2.500000e+00
TDG2  X3eq  1  3.950000e-01  2.700000e+00
TDG2  X4eq  1  3.950000e-01  2.700000e+00
TDG2  C1eq  1  3.950000e-01  1.850000e+00
TDG2  C2eq  1  3.950000e-01  2.110000e+00
TDG2  C3eq  1  3.950000e-01  2.110000e+00
TDG2  C4eq  1  3.950000e-01  2.310000e+00
TDG2  C5eq  1  3.950000e-01  2.500000e+00
TDG2  C6eq  1  3.950000e-01  2.700000e+00
TDG2  X1vq  1  3.950000e-01  1.850000e+00
TDG2  X2vq  1  3.950000e-01  2.110000e+00
TDG2  X3vq  1  3.950000e-01  2.310000e+00
TDG2  X4vq  1  3.950000e-01  2.310000e+00
TDG2  C1vq  1  3.980000e-01  1.450000e+00
TDG2  C2vq  1  3.950000e-01  1.670000e+00
TDG2  C3vq  1  3.950000e-01  1.670000e+00
TDG2  C4vq  1  3.950000e-01  1.850000e+00
TDG2  C5vq  1  3.950000e-01  2.110000e+00
TDG2  C6vq  1  3.950000e-01  2.310000e+00
TDG2  N1aq  1  3.950000e-01  2.940000e+00
TDG2  N2aq  1  3.950000e-01  2.940000e+00
TDG2  N3aq  1  3.950000e-01  2.940000e+00
TDG2  N4aq  1  3.950000e-01  3.430000e+00
TDG2  N5aq  1  3.950000e-01  3.430000e+00
TDG2  N6aq  1  3.950000e-01  3.670000e+00
TDG2  P1aq  1  3.950000e-01  3.670000e+00
TDG2  N1dq  1  3.950000e-01  2.500000e+00
TDG2  N2dq  1  3.950000e-01  2.500000e+00
TDG2  N3dq  1  3.950000e-01  2.500000e+00
TDG2  N4dq  1  3.950000e-01  2.940000e+00
TDG2  N5dq  1  3.950000e-01  2.940000e+00
TDG2  N6dq  1  3.950000e-01  3.190000e+00
TDG2  N6h  1  3.950000e-01  2.940000e+00
TDG2  N5h  1  3.950000e-01  2.700000e+00
TDG2  N4h  1  3.950000e-01  2.700000e+00
TDG2  N3h  1  3.950000e-01  2.310000e+00
TDG2  N2h  1  3.950000e-01  2.310000e+00
TDG2  N1h  1  3.950000e-01  2.310000e+00
TDG2  C6h  1  3.950000e-01  2.110000e+00
TDG2  C5h  1  3.950000e-01  1.850000e+00
TDG2  C4h  1  3.950000e-01  1.670000e+00
TDG2  C3h  1  3.980000e-01  1.450000e+00
TDG2  C2h  1  3.980000e-01  1.450000e+00
TDG2  C1h  1  3.990000e-01  1.180000e+00
TDG2  X4h  1  3.950000e-01  2.110000e+00
TDG2  X3h  1  3.950000e-01  2.110000e+00
TDG2  X2h  1  3.950000e-01  1.850000e+00
TDG2  X1h  1  3.950000e-01  1.670000e+00
TDG2  P1dh  1  3.950000e-01  2.700000e+00
TDG2  X1eh  1  3.950000e-01  1.850000e+00
TDG2  X2eh  1  3.950000e-01  2.110000e+00
TDG2  X3eh  1  3.950000e-01  2.310000e+00
TDG2  X4eh  1  3.950000e-01  2.310000e+00
TDG2  C1eh  1  3.980000e-01  1.450000e+00
TDG2  C2eh  1  3.950000e-01  1.670000e+00
TDG2  C3eh  1  3.950000e-01  1.670000e+00
TDG2  C4eh  1  3.950000e-01  1.850000e+00
TDG2  C5eh  1  3.950000e-01  2.110000e+00
TDG2  C6eh  1  3.950000e-01  2.310000e+00
TDG2  X1vh  1  3.980000e-01  1.450000e+00
TDG2  X2vh  1  3.950000e-01  1.670000e+00
TDG2  X3vh  1  3.950000e-01  1.850000e+00
TDG2  X4vh  1  3.950000e-01  1.850000e+00
TDG2  C1vh  1  4.010000e-01  9.830000e-01
TDG2  C2vh  1  3.990000e-01  1.180000e+00
TDG2  C3vh  1  3.990000e-01  1.180000e+00
TDG2  C4vh  1  3.980000e-01  1.450000e+00
TDG2  C5vh  1  3.950000e-01  1.670000e+00
TDG2  C6vh  1  3.950000e-01  1.850000e+00
TDG2  N1ah  1  3.950000e-01  2.500000e+00
TDG2  N2ah  1  3.950000e-01  2.500000e+00
TDG2  N3ah  1  3.950000e-01  2.500000e+00
TDG2  N4ah  1  3.950000e-01  2.940000e+00
TDG2  N5ah  1  3.950000e-01  2.940000e+00
TDG2  N6ah  1  3.950000e-01  3.190000e+00
TDG2  P1ah  1  3.950000e-01  3.190000e+00
TDG2  N1dh  1  3.950000e-01  2.110000e+00
TDG2  N2dh  1  3.950000e-01  2.110000e+00
TDG2  N3dh  1  3.950000e-01  2.110000e+00
TDG2  N4dh  1  3.950000e-01  2.500000e+00
TDG2  N5dh  1  3.950000e-01  2.500000e+00
TDG2  N6dh  1  3.950000e-01  2.700000e+00
TDG2  N6r  1  3.950000e-01  2.940000e+00
TDG2  N5r  1  3.950000e-01  2.700000e+00
TDG2  N4r  1  3.950000e-01  2.700000e+00
TDG2  N3r  1  3.950000e-01  2.310000e+00
TDG2  N2r  1  3.950000e-01  2.310000e+00
TDG2  N1r  1  3.950000e-01  2.310000e+00
TDG2  C6r  1  3.950000e-01  2.110000e+00
TDG2  C5r  1  3.950000e-01  1.850000e+00
TDG2  C4r  1  3.950000e-01  1.670000e+00
TDG2  C3r  1  3.980000e-01  1.450000e+00
TDG2  C2r  1  3.980000e-01  1.450000e+00
TDG2  C1r  1  3.990000e-01  1.180000e+00
TDG2  X4r  1  3.950000e-01  2.110000e+00
TDG2  X3r  1  3.950000e-01  2.110000e+00
TDG2  X2r  1  3.950000e-01  1.850000e+00
TDG2  X1r  1  3.950000e-01  1.670000e+00
TDG2  P1dr  1  3.950000e-01  2.700000e+00
TDG2  X1er  1  3.950000e-01  1.850000e+00
TDG2  X2er  1  3.950000e-01  2.110000e+00
TDG2  X3er  1  3.950000e-01  2.310000e+00
TDG2  X4er  1  3.950000e-01  2.310000e+00
TDG2  C1er  1  3.980000e-01  1.450000e+00
TDG2  C2er  1  3.950000e-01  1.670000e+00
TDG2  C3er  1  3.950000e-01  1.670000e+00
TDG2  C4er  1  3.950000e-01  1.850000e+00
TDG2  C5er  1  3.950000e-01  2.110000e+00
TDG2  C6er  1  3.950000e-01  2.310000e+00
TDG2  X1vr  1  3.980000e-01  1.450000e+00
TDG2  X2vr  1  3.950000e-01  1.670000e+00
TDG2  X3vr  1  3.950000e-01  1.850000e+00
TDG2  X4vr  1  3.950000e-01  1.850000e+00
TDG2  C1vr  1  4.010000e-01  9.830000e-01
TDG2  C2vr  1  3.990000e-01  1.180000e+00
TDG2  C3vr  1  3.990000e-01  1.180000e+00
TDG2  C4vr  1  3.980000e-01  1.450000e+00
TDG2  C5vr  1  3.950000e-01  1.670000e+00
TDG2  C6vr  1  3.950000e-01  1.850000e+00
TDG2  N1ar  1  3.950000e-01  2.500000e+00
TDG2  N2ar  1  3.950000e-01  2.500000e+00
TDG2  N3ar  1  3.950000e-01  2.500000e+00
TDG2  N4ar  1  3.950000e-01  2.940000e+00
TDG2  N5ar  1  3.950000e-01  2.940000e+00
TDG2  N6ar  1  3.950000e-01  3.190000e+00
TDG2  P1ar  1  3.950000e-01  3.190000e+00
TDG2  N1dr  1  3.950000e-01  2.110000e+00
TDG2  N2dr  1  3.950000e-01  2.110000e+00
TDG2  N3dr  1  3.950000e-01  2.110000e+00
TDG2  N4dr  1  3.950000e-01  2.500000e+00
TDG2  N5dr  1  3.950000e-01  2.500000e+00
TDG2  N6dr  1  3.950000e-01  2.700000e+00
TDG2  TP1a  1  3.400000e-01  2.990000e+00
TDG2  TN6a  1  3.400000e-01  2.990000e+00
TDG2  TN5a  1  3.400000e-01  2.740000e+00
TDG2  TN4a  1  3.400000e-01  2.740000e+00
TDG2  TN3a  1  3.400000e-01  2.280000e+00
TDG2  TN2a  1  3.400000e-01  2.280000e+00
TDG2  TN1a  1  3.400000e-01  2.280000e+00
TDG2  TN1aq  1  3.400000e-01  2.740000e+00
TDG2  TN2aq  1  3.400000e-01  2.740000e+00
TDG2  TN3aq  1  3.400000e-01  2.740000e+00
TDG2  TN4aq  1  3.400000e-01  3.220000e+00
TDG2  TN5aq  1  3.400000e-01  3.220000e+00
TDG2  TN6aq  1  3.400000e-01  3.470000e+00
TDG2  TP1aq  1  3.400000e-01  3.470000e+00
TDG2  TN1ah  1  3.400000e-01  2.280000e+00
TDG2  TN2ah  1  3.400000e-01  2.280000e+00
TDG2  TN3ah  1  3.400000e-01  2.280000e+00
TDG2  TN4ah  1  3.400000e-01  2.740000e+00
TDG2  TN5ah  1  3.400000e-01  2.740000e+00
TDG2  TN6ah  1  3.400000e-01  2.990000e+00
TDG2  TP1ah  1  3.400000e-01  2.990000e+00
TDG2  TN1ar  1  3.400000e-01  2.280000e+00
TDG2  TN2ar  1  3.400000e-01  2.280000e+00
TDG2  TN3ar  1  3.400000e-01  2.280000e+00
TDG2  TN4ar  1  3.400000e-01  2.740000e+00
TDG2  TN5ar  1  3.400000e-01  2.740000e+00
TDG2  TN6ar  1  3.400000e-01  2.990000e+00
TDG2  TP1ar  1  3.400000e-01  2.990000e+00
TP6a  TDG2  1  3.400000e-01  3.220000e+00
TP5a  TDG2  1  3.400000e-01  2.990000e+00
TP4a  TDG2  1  3.400000e-01  2.990000e+00
TP3a  TDG2  1  3.400000e-01  2.990000e+00
TP2a  TDG2  1  3.400000e-01  2.990000e+00
TP2aq  TDG2  1  3.400000e-01  3.470000e+00
TP3aq  TDG2  1  3.400000e-01  3.470000e+00
TP4aq  TDG2  1  3.400000e-01  3.470000e+00
TP5aq  TDG2  1  3.400000e-01  3.470000e+00
TP6aq  TDG2  1  3.400000e-01  3.750000e+00
TP2ah  TDG2  1  3.400000e-01  2.990000e+00
TP3ah  TDG2  1  3.400000e-01  2.990000e+00
TP4ah  TDG2  1  3.400000e-01  2.990000e+00
TP5ah  TDG2  1  3.400000e-01  2.990000e+00
TP6ah  TDG2  1  3.400000e-01  3.220000e+00
TP2ar  TDG2  1  3.400000e-01  2.990000e+00
TP3ar  TDG2  1  3.400000e-01  2.990000e+00
TP4ar  TDG2  1  3.400000e-01  2.990000e+00
TP5ar  TDG2  1  3.400000e-01  2.990000e+00
TP6ar  TDG2  1  3.400000e-01  3.220000e+00
TDG2  TC6e  1  3.400000e-01  1.510000e+00
TDG2  TC5e  1  3.400000e-01  1.230000e+00
TDG2  TC4e  1  3.520000e-01  1.050000e+00
TDG2  TC3e  1  3.660000e-01  9.350000e-01
TDG2  TC2e  1  3.660000e-01  9.350000e-01
TDG2  TC1e  1  3.850000e-01  8.550000e-01
TDG2  TX4e  1  3.400000e-01  1.510000e+00
TDG2  TX3e  1  3.400000e-01  1.510000e+00
TDG2  TX2e  1  3.400000e-01  1.230000e+00
TDG2  TX1e  1  3.520000e-01  1.050000e+00
TDG2  TX1eq  1  3.400000e-01  1.510000e+00
TDG2  TX2eq  1  3.400000e-01  1.770000e+00
TDG2  TX3eq  1  3.400000e-01  2.020000e+00
TDG2  TX4eq  1  3.400000e-01  2.020000e+00
TDG2  TC1eq  1  3.520000e-01  1.050000e+00
TDG2  TC2eq  1  3.400000e-01  1.230000e+00
TDG2  TC3eq  1  3.400000e-01  1.230000e+00
TDG2  TC4eq  1  3.400000e-01  1.510000e+00
TDG2  TC5eq  1  3.400000e-01  1.770000e+00
TDG2  TC6eq  1  3.400000e-01  2.020000e+00
TDG2  TX1eh  1  3.520000e-01  1.050000e+00
TDG2  TX2eh  1  3.400000e-01  1.230000e+00
TDG2  TX3eh  1  3.400000e-01  1.510000e+00
TDG2  TX4eh  1  3.400000e-01  1.510000e+00
TDG2  TC1eh  1  3.850000e-01  8.550000e-01
TDG2  TC2eh  1  3.660000e-01  9.350000e-01
TDG2  TC3eh  1  3.660000e-01  9.350000e-01
TDG2  TC4eh  1  3.520000e-01  1.050000e+00
TDG2  TC5eh  1  3.400000e-01  1.230000e+00
TDG2  TC6eh  1  3.400000e-01  1.510000e+00
TDG2  TX1er  1  3.520000e-01  1.050000e+00
TDG2  TX2er  1  3.400000e-01  1.230000e+00
TDG2  TX3er  1  3.400000e-01  1.510000e+00
TDG2  TX4er  1  3.400000e-01  1.510000e+00
TDG2  TC1er  1  3.850000e-01  8.550000e-01
TDG2  TC2er  1  3.660000e-01  9.350000e-01
TDG2  TC3er  1  3.660000e-01  9.350000e-01
TDG2  TC4er  1  3.520000e-01  1.050000e+00
TDG2  TC5er  1  3.400000e-01  1.230000e+00
TDG2  TC6er  1  3.400000e-01  1.510000e+00
TDG2  TC6v  1  3.520000e-01  1.050000e+00
TDG2  TC5v  1  3.660000e-01  9.350000e-01
TDG2  TC4v  1  3.850000e-01  8.550000e-01
TDG2  TC3v  1  4.110000e-01  8.010000e-01
TDG2  TC2v  1  4.110000e-01  8.010000e-01
TDG2  TC1v  1  4.240000e-01  7.760000e-01
TDG2  TX4v  1  3.520000e-01  1.050000e+00
TDG2  TX3v  1  3.520000e-01  1.050000e+00
TDG2  TX2v  1  3.660000e-01  9.350000e-01
TDG2  TX1v  1  3.850000e-01  8.550000e-01
TDG2  TX1vq  1  3.520000e-01  1.050000e+00
TDG2  TX2vq  1  3.400000e-01  1.230000e+00
TDG2  TX3vq  1  3.400000e-01  1.510000e+00
TDG2  TX4vq  1  3.400000e-01  1.510000e+00
TDG2  TC1vq  1  3.850000e-01  8.550000e-01
TDG2  TC2vq  1  3.660000e-01  9.350000e-01
TDG2  TC3vq  1  3.660000e-01  9.350000e-01
TDG2  TC4vq  1  3.520000e-01  1.050000e+00
TDG2  TC5vq  1  3.400000e-01  1.230000e+00
TDG2  TC6vq  1  3.400000e-01  1.510000e+00
TDG2  TX1vh  1  3.850000e-01  8.550000e-01
TDG2  TX2vh  1  3.660000e-01  9.350000e-01
TDG2  TX3vh  1  3.520000e-01  1.050000e+00
TDG2  TX4vh  1  3.520000e-01  1.050000e+00
TDG2  TC1vh  1  4.240000e-01  7.760000e-01
TDG2  TC2vh  1  4.110000e-01  8.010000e-01
TDG2  TC3vh  1  4.110000e-01  8.010000e-01
TDG2  TC4vh  1  3.850000e-01  8.550000e-01
TDG2  TC5vh  1  3.660000e-01  9.350000e-01
TDG2  TC6vh  1  3.520000e-01  1.050000e+00
TDG2  TX1vr  1  3.850000e-01  8.550000e-01
TDG2  TX2vr  1  3.660000e-01  9.350000e-01
TDG2  TX3vr  1  3.520000e-01  1.050000e+00
TDG2  TX4vr  1  3.520000e-01  1.050000e+00
TDG2  TC1vr  1  4.240000e-01  7.760000e-01
TDG2  TC2vr  1  4.110000e-01  8.010000e-01
TDG2  TC3vr  1  4.110000e-01  8.010000e-01
TDG2  TC4vr  1  3.850000e-01  8.550000e-01
TDG2  TC5vr  1  3.660000e-01  9.350000e-01
TDG2  TC6vr  1  3.520000e-01  1.050000e+00
TDG2  TP1dq  1  3.400000e-01  2.500000e+00
TDG2  TN1dq  1  3.400000e-01  1.770000e+00
TDG2  TN2dq  1  3.400000e-01  1.770000e+00
TDG2  TN3dq  1  3.400000e-01  1.770000e+00
TDG2  TN4dq  1  3.400000e-01  2.280000e+00
TDG2  TN5dq  1  3.400000e-01  2.280000e+00
TDG2  TN6dq  1  3.400000e-01  2.500000e+00
TDG2  TP1dh  1  3.400000e-01  2.020000e+00
TDG2  TN1dh  1  3.400000e-01  1.230000e+00
TDG2  TN2dh  1  3.400000e-01  1.230000e+00
TDG2  TN3dh  1  3.400000e-01  1.230000e+00
TDG2  TN4dh  1  3.400000e-01  1.770000e+00
TDG2  TN5dh  1  3.400000e-01  1.770000e+00
TDG2  TN6dh  1  3.400000e-01  2.020000e+00
TDG2  TP1dr  1  3.400000e-01  2.020000e+00
TDG2  TN1dr  1  3.400000e-01  1.230000e+00
TDG2  TN2dr  1  3.400000e-01  1.230000e+00
TDG2  TN3dr  1  3.400000e-01  1.230000e+00
TDG2  TN4dr  1  3.400000e-01  1.770000e+00
TDG2  TN5dr  1  3.400000e-01  1.770000e+00
TDG2  TN6dr  1  3.400000e-01  2.020000e+00
TP6d  TDG2  1  3.400000e-01  2.280000e+00
TP5d  TDG2  1  3.400000e-01  2.020000e+00
TP4d  TDG2  1  3.400000e-01  2.020000e+00
TP3d  TDG2  1  3.400000e-01  2.020000e+00
TP2d  TDG2  1  3.400000e-01  2.020000e+00
TDG2  TP1d  1  3.400000e-01  2.020000e+00
TDG2  TN6d  1  3.400000e-01  2.020000e+00
TDG2  TN5d  1  3.400000e-01  1.770000e+00
TDG2  TN4d  1  3.400000e-01  1.770000e+00
TDG2  TN3d  1  3.400000e-01  1.230000e+00
TDG2  TN2d  1  3.400000e-01  1.230000e+00
TDG2  TN1d  1  3.400000e-01  1.230000e+00
TP6q  TDG2  1  3.400000e-01  2.990000e+00
TP5q  TDG2  1  3.400000e-01  2.740000e+00
TP4q  TDG2  1  3.400000e-01  2.740000e+00
TP3q  TDG2  1  3.400000e-01  2.740000e+00
TP2q  TDG2  1  3.400000e-01  2.740000e+00
TP1q  TDG2  1  3.400000e-01  2.740000e+00
TDG2  TN6q  1  3.400000e-01  2.740000e+00
TDG2  TN5q  1  3.400000e-01  2.500000e+00
TDG2  TN4q  1  3.400000e-01  2.500000e+00
TDG2  TN3q  1  3.400000e-01  2.020000e+00
TDG2  TN2q  1  3.400000e-01  2.020000e+00
TDG2  TN1q  1  3.400000e-01  2.020000e+00
TDG2  TC6q  1  3.400000e-01  1.770000e+00
TDG2  TC5q  1  3.400000e-01  1.510000e+00
TDG2  TC4q  1  3.400000e-01  1.230000e+00
TDG2  TC3q  1  3.520000e-01  1.050000e+00
TDG2  TC2q  1  3.520000e-01  1.050000e+00
TDG2  TC1q  1  3.660000e-01  9.350000e-01
TDG2  TX4q  1  3.400000e-01  1.770000e+00
TDG2  TX3q  1  3.400000e-01  1.770000e+00
TDG2  TX2q  1  3.400000e-01  1.510000e+00
TDG2  TX1q  1  3.400000e-01  1.230000e+00
TP6h  TDG2  1  3.400000e-01  2.500000e+00
TP5h  TDG2  1  3.400000e-01  2.280000e+00
TP4h  TDG2  1  3.400000e-01  2.280000e+00
TP3h  TDG2  1  3.400000e-01  2.280000e+00
TP2h  TDG2  1  3.400000e-01  2.280000e+00
TP1h  TDG2  1  3.400000e-01  2.280000e+00
TDG2  TN6h  1  3.400000e-01  2.280000e+00
TDG2  TN5h  1  3.400000e-01  2.020000e+00
TDG2  TN4h  1  3.400000e-01  2.020000e+00
TDG2  TN3h  1  3.400000e-01  1.510000e+00
TDG2  TN2h  1  3.400000e-01  1.510000e+00
TDG2  TN1h  1  3.400000e-01  1.510000e+00
TDG2  TC6h  1  3.400000e-01  1.230000e+00
TDG2  TC5h  1  3.520000e-01  1.050000e+00
TDG2  TC4h  1  3.660000e-01  9.350000e-01
TDG2  TC3h  1  3.850000e-01  8.550000e-01
TDG2  TC2h  1  3.850000e-01  8.550000e-01
TDG2  TC1h  1  4.110000e-01  8.010000e-01
TDG2  TX4h  1  3.400000e-01  1.230000e+00
TDG2  TX3h  1  3.400000e-01  1.230000e+00
TDG2  TX2h  1  3.520000e-01  1.050000e+00
TDG2  TX1h  1  3.660000e-01  9.350000e-01
TP6r  TDG2  1  3.400000e-01  2.500000e+00
TP5r  TDG2  1  3.400000e-01  2.280000e+00
TP4r  TDG2  1  3.400000e-01  2.280000e+00
TP3r  TDG2  1  3.400000e-01  2.280000e+00
TP2r  TDG2  1  3.400000e-01  2.280000e+00
TP1r  TDG2  1  3.400000e-01  2.280000e+00
TDG2  TN6r  1  3.400000e-01  2.280000e+00
TDG2  TN5r  1  3.400000e-01  2.020000e+00
TDG2  TN4r  1  3.400000e-01  2.020000e+00
TDG2  TN3r  1  3.400000e-01  1.510000e+00
TDG2  TN2r  1  3.400000e-01  1.510000e+00
TDG2  TN1r  1  3.400000e-01  1.510000e+00
TDG2  TC6r  1  3.400000e-01  1.230000e+00
TDG2  TC5r  1  3.520000e-01  1.050000e+00
TDG2  TC4r  1  3.660000e-01  9.350000e-01
TDG2  TC3r  1  3.850000e-01  8.550000e-01
TDG2  TC2r  1  3.850000e-01  8.550000e-01
TDG2  TC1r  1  4.110000e-01  8.010000e-01
TDG2  TX4r  1  3.400000e-01  1.230000e+00
TDG2  TX3r  1  3.400000e-01  1.230000e+00
TDG2  TX2r  1  3.520000e-01  1.050000e+00
TDG2  TX1r  1  3.660000e-01  9.350000e-01
TP6dq  TDG2  1  3.400000e-01  2.740000e+00
TP5dq  TDG2  1  3.400000e-01  2.500000e+00
TP4dq  TDG2  1  3.400000e-01  2.500000e+00
TP3dq  TDG2  1  3.400000e-01  2.500000e+00
TP2dq  TDG2  1  3.400000e-01  2.500000e+00
TP6dh  TDG2  1  3.400000e-01  2.280000e+00
TP5dh  TDG2  1  3.400000e-01  2.020000e+00
TP4dh  TDG2  1  3.400000e-01  2.020000e+00
TP3dh  TDG2  1  3.400000e-01  2.020000e+00
TP2dh  TDG2  1  3.400000e-01  2.020000e+00
TP6dr  TDG2  1  3.400000e-01  2.280000e+00
TP5dr  TDG2  1  3.400000e-01  2.020000e+00
TP4dr  TDG2  1  3.400000e-01  2.020000e+00
TP3dr  TDG2  1  3.400000e-01  2.020000e+00
TP2dr  TDG2  1  3.400000e-01  2.020000e+00
W  TDG2  1  3.850000e-01  3.100000e+00
SW  TDG2  1  3.750000e-01  2.430000e+00
TW  TDG2  1  3.450000e-01  2.370000e+00
TDG2  D  1  3.950000e-01  4.517000e+00
TDG2  SD  1  3.650000e-01  1.044900e+01
TDG2  TD  1  3.400000e-01  1.232200e+01
TDG2  Q5  1  3.950000e-01  4.027000e+00
TDG2  SQ5  1  3.650000e-01  5.329000e+00
TDG2  TQ5  1  3.400000e-01  7.299000e+00
TDG2  Q5p  1  3.950000e-01  3.787000e+00
TDG2  SQ5p  1  3.650000e-01  5.059000e+00
TDG2  TQ5p  1  3.400000e-01  7.049000e+00
TDG2  Q5n  1  3.950000e-01  4.587000e+00
TDG2  SQ5n  1  3.650000e-01  5.889000e+00
TDG2  TQ5n  1  3.400000e-01  8.059000e+00
TDG2  Q4  1  3.950000e-01  3.793000e+00
TDG2  SQ4  1  3.650000e-01  5.092000e+00
TDG2  TQ4  1  3.400000e-01  7.122000e+00
TDG2  Q4p  1  3.950000e-01  3.553000e+00
TDG2  SQ4p  1  3.650000e-01  4.822000e+00
TDG2  TQ4p  1  3.400000e-01  6.882000e+00
TDG2  Q4n  1  3.950000e-01  4.273000e+00
TDG2  SQ4n  1  3.650000e-01  5.632000e+00
TDG2  TQ4n  1  3.400000e-01  7.852000e+00
TDG2  Q3  1  3.950000e-01  3.572000e+00
TDG2  SQ3  1  3.650000e-01  4.928000e+00
TDG2  TQ3  1  3.400000e-01  7.115000e+00
TDG2  Q3p  1  3.950000e-01  3.572000e+00
TDG2  SQ3p  1  3.650000e-01  4.928000e+00
TDG2  TQ3p  1  3.400000e-01  7.115000e+00
TDG2  Q3n  1  3.950000e-01  4.052000e+00
TDG2  SQ3n  1  3.650000e-01  5.468000e+00
TDG2  TQ3n  1  3.400000e-01  7.835000e+00
TDG2  Q2  1  3.950000e-01  3.585000e+00
TDG2  SQ2  1  3.650000e-01  4.996000e+00
TDG2  TQ2  1  3.400000e-01  7.264000e+00
TDG2  Q2p  1  3.950000e-01  3.585000e+00
TDG2  SQ2p  1  3.650000e-01  4.996000e+00
TDG2  TQ2p  1  3.400000e-01  7.264000e+00
TDG2  Q2n  1  3.950000e-01  4.065000e+00
TDG2  SQ2n  1  3.650000e-01  5.536000e+00
TDG2  TQ2n  1  3.400000e-01  7.984000e+00
TDG2  Q1  1  3.950000e-01  3.831000e+00
TDG2  SQ1  1  3.650000e-01  5.302000e+00
TDG2  TQ1  1  3.400000e-01  7.585000e+00
TDG2  Q1p  1  3.950000e-01  3.591000e+00
TDG2  SQ1p  1  3.650000e-01  5.032000e+00
TDG2  TQ1p  1  3.400000e-01  7.345000e+00
TDG2  Q1n  1  3.950000e-01  4.311000e+00
TDG2  SQ1n  1  3.650000e-01  5.842000e+00
TDG2  TQ1n  1  3.400000e-01  8.315000e+00
P6  TDG3  1  3.950000e-01  3.190000e+00
SP6  TDG3  1  3.650000e-01  2.830000e+00
TP6  TDG3  1  3.400000e-01  2.500000e+00
P5  TDG3  1  3.950000e-01  2.940000e+00
SP5  TDG3  1  3.650000e-01  2.570000e+00
TP5  TDG3  1  3.400000e-01  2.280000e+00
P4  TDG3  1  3.950000e-01  2.940000e+00
SP4  TDG3  1  3.650000e-01  2.570000e+00
TP4  TDG3  1  3.400000e-01  2.280000e+00
P3  TDG3  1  3.950000e-01  2.940000e+00
SP3  TDG3  1  3.650000e-01  2.570000e+00
TP3  TDG3  1  3.400000e-01  2.280000e+00
P2  TDG3  1  3.950000e-01  2.940000e+00
SP2  TDG3  1  3.650000e-01  2.570000e+00
TP2  TDG3  1  3.400000e-01  2.280000e+00
P1  TDG3  1  3.950000e-01  2.940000e+00
SP1  TDG3  1  3.650000e-01  2.570000e+00
TP1  TDG3  1  3.400000e-01  2.280000e+00
TDG3  N6  1  3.950000e-01  2.940000e+00
TDG3  SN6  1  3.650000e-01  2.570000e+00
TDG3  TN6  1  3.400000e-01  2.280000e+00
TDG3  N5  1  3.950000e-01  2.700000e+00
TDG3  SN5  1  3.650000e-01  2.340000e+00
TDG3  TN5  1  3.400000e-01  2.020000e+00
TDG3  N4  1  3.950000e-01  2.700000e+00
TDG3  SN4  1  3.650000e-01  2.340000e+00
TDG3  TN4  1  3.400000e-01  2.020000e+00
TDG3  N3  1  3.950000e-01  2.310000e+00
TDG3  SN3  1  3.650000e-01  1.910000e+00
TDG3  TN3  1  3.400000e-01  1.510000e+00
TDG3  N2  1  3.950000e-01  2.310000e+00
TDG3  SN2  1  3.650000e-01  1.910000e+00
TDG3  TN2  1  3.400000e-01  1.510000e+00
TDG3  N1  1  3.950000e-01  2.310000e+00
TDG3  SN1  1  3.650000e-01  1.910000e+00
TDG3  TN1  1  3.400000e-01  1.510000e+00
TDG3  C6  1  3.950000e-01  2.110000e+00
TDG3  SC6  1  3.650000e-01  1.750000e+00
TDG3  TC6  1  3.400000e-01  1.230000e+00
TDG3  C5  1  3.950000e-01  1.850000e+00
TDG3  SC5  1  3.660000e-01  1.600000e+00
TDG3  TC5  1  3.520000e-01  1.050000e+00
TDG3  C4  1  3.950000e-01  1.670000e+00
TDG3  SC4  1  3.780000e-01  1.450000e+00
TDG3  TC4  1  3.660000e-01  9.350000e-01
TDG3  C3  1  3.980000e-01  1.450000e+00
TDG3  SC3  1  3.940000e-01  1.290000e+00
TDG3  TC3  1  3.850000e-01  8.550000e-01
TDG3  C2  1  3.980000e-01  1.450000e+00
TDG3  SC2  1  3.940000e-01  1.290000e+00
TDG3  TC2  1  3.850000e-01  8.550000e-01
TDG3  C1  1  3.990000e-01  1.180000e+00
TDG3  SC1  1  4.040000e-01  1.130000e+00
TDG3  TC1  1  4.110000e-01  8.010000e-01
TDG3  X4  1  3.950000e-01  2.110000e+00
TDG3  SX4  1  3.650000e-01  1.750000e+00
TDG3  TX4  1  3.400000e-01  1.230000e+00
TDG3  X3  1  3.950000e-01  2.110000e+00
TDG3  SX3  1  3.650000e-01  1.750000e+00
TDG3  TX3  1  3.400000e-01  1.230000e+00
TDG3  X2  1  3.950000e-01  1.850000e+00
TDG3  SX2  1  3.660000e-01  1.600000e+00
TDG3  TX2  1  3.520000e-01  1.050000e+00
TDG3  X1  1  3.950000e-01  1.670000e+00
TDG3  SX1  1  3.780000e-01  1.450000e+00
TDG3  TX1  1  3.660000e-01  9.350000e-01
SP6d  TDG3  1  3.650000e-01  2.570000e+00
SP5d  TDG3  1  3.650000e-01  2.340000e+00
SP4d  TDG3  1  3.650000e-01  2.340000e+00
SP3d  TDG3  1  3.650000e-01  2.340000e+00
SP2d  TDG3  1  3.650000e-01  2.340000e+00
SP1d  TDG3  1  3.650000e-01  2.340000e+00
SP6a  TDG3  1  3.650000e-01  3.100000e+00
SP5a  TDG3  1  3.650000e-01  2.830000e+00
SP4a  TDG3  1  3.650000e-01  2.830000e+00
SP3a  TDG3  1  3.650000e-01  2.830000e+00
SP2a  TDG3  1  3.650000e-01  2.830000e+00
SP6q  TDG3  1  3.650000e-01  3.370000e+00
SP5q  TDG3  1  3.650000e-01  3.100000e+00
SP4q  TDG3  1  3.650000e-01  3.100000e+00
SP3q  TDG3  1  3.650000e-01  3.100000e+00
SP2q  TDG3  1  3.650000e-01  3.100000e+00
SP1q  TDG3  1  3.650000e-01  3.100000e+00
SP6h  TDG3  1  3.650000e-01  2.830000e+00
SP5h  TDG3  1  3.650000e-01  2.570000e+00
SP4h  TDG3  1  3.650000e-01  2.570000e+00
SP3h  TDG3  1  3.650000e-01  2.570000e+00
SP2h  TDG3  1  3.650000e-01  2.570000e+00
SP1h  TDG3  1  3.650000e-01  2.570000e+00
SP6r  TDG3  1  3.650000e-01  2.830000e+00
SP5r  TDG3  1  3.650000e-01  2.570000e+00
SP4r  TDG3  1  3.650000e-01  2.570000e+00
SP3r  TDG3  1  3.650000e-01  2.570000e+00
SP2r  TDG3  1  3.650000e-01  2.570000e+00
SP1r  TDG3  1  3.650000e-01  2.570000e+00
SP6dq  TDG3  1  3.650000e-01  3.100000e+00
SP5dq  TDG3  1  3.650000e-01  2.830000e+00
SP4dq  TDG3  1  3.650000e-01  2.830000e+00
SP3dq  TDG3  1  3.650000e-01  2.830000e+00
SP2dq  TDG3  1  3.650000e-01  2.830000e+00
SP2aq  TDG3  1  3.650000e-01  3.370000e+00
SP3aq  TDG3  1  3.650000e-01  3.370000e+00
SP4aq  TDG3  1  3.650000e-01  3.370000e+00
SP5aq  TDG3  1  3.650000e-01  3.370000e+00
SP6aq  TDG3  1  3.650000e-01  3.640000e+00
SP6dh  TDG3  1  3.650000e-01  2.570000e+00
SP5dh  TDG3  1  3.650000e-01  2.340000e+00
SP4dh  TDG3  1  3.650000e-01  2.340000e+00
SP3dh  TDG3  1  3.650000e-01  2.340000e+00
SP2dh  TDG3  1  3.650000e-01  2.340000e+00
SP2ah  TDG3  1  3.650000e-01  2.830000e+00
SP3ah  TDG3  1  3.650000e-01  2.830000e+00
SP4ah  TDG3  1  3.650000e-01  2.830000e+00
SP5ah  TDG3  1  3.650000e-01  2.830000e+00
SP6ah  TDG3  1  3.650000e-01  3.100000e+00
SP6dr  TDG3  1  3.650000e-01  2.570000e+00
SP5dr  TDG3  1  3.650000e-01  2.340000e+00
SP4dr  TDG3  1  3.650000e-01  2.340000e+00
SP3dr  TDG3  1  3.650000e-01  2.340000e+00
SP2dr  TDG3  1  3.650000e-01  2.340000e+00
SP2ar  TDG3  1  3.650000e-01  2.830000e+00
SP3ar  TDG3  1  3.650000e-01  2.830000e+00
SP4ar  TDG3  1  3.650000e-01  2.830000e+00
SP5ar  TDG3  1  3.650000e-01  2.830000e+00
SP6ar  TDG3  1  3.650000e-01  3.100000e+00
TDG3  SP1dq  1  3.650000e-01  2.830000e+00
TDG3  SX1eq  1  3.650000e-01  1.910000e+00
TDG3  SX2eq  1  3.650000e-01  2.110000e+00
TDG3  SX3eq  1  3.650000e-01  2.340000e+00
TDG3  SX4eq  1  3.650000e-01  2.340000e+00
TDG3  SC1eq  1  3.660000e-01  1.600000e+00
TDG3  SC2eq  1  3.650000e-01  1.750000e+00
TDG3  SC3eq  1  3.650000e-01  1.750000e+00
TDG3  SC4eq  1  3.650000e-01  1.910000e+00
TDG3  SC5eq  1  3.650000e-01  2.110000e+00
TDG3  SC6eq  1  3.650000e-01  2.340000e+00
TDG3  SX1vq  1  3.660000e-01  1.600000e+00
TDG3  SX2vq  1  3.650000e-01  1.750000e+00
TDG3  SX3vq  1  3.650000e-01  1.910000e+00
TDG3  SX4vq  1  3.650000e-01  1.910000e+00
TDG3  SC1vq  1  3.940000e-01  1.290000e+00
TDG3  SC2vq  1  3.780000e-01  1.450000e+00
TDG3  SC3vq  1  3.780000e-01  1.450000e+00
TDG3  SC4vq  1  3.660000e-01  1.600000e+00
TDG3  SC5vq  1  3.650000e-01  1.750000e+00
TDG3  SC6vq  1  3.650000e-01  1.910000e+00
TDG3  SN1aq  1  3.650000e-01  2.570000e+00
TDG3  SN2aq  1  3.650000e-01  2.570000e+00
TDG3  SN3aq  1  3.650000e-01  2.570000e+00
TDG3  SN4aq  1  3.650000e-01  3.100000e+00
TDG3  SN5aq  1  3.650000e-01  3.100000e+00
TDG3  SN6aq  1  3.650000e-01  3.370000e+00
TDG3  SP1aq  1  3.650000e-01  3.370000e+00
TDG3  SN1dq  1  3.650000e-01  2.110000e+00
TDG3  SN2dq  1  3.650000e-01  2.110000e+00
TDG3  SN3dq  1  3.650000e-01  2.110000e+00
TDG3  SN4dq  1  3.650000e-01  2.570000e+00
TDG3  SN5dq  1  3.650000e-01  2.570000e+00
TDG3  SN6dq  1  3.650000e-01  2.830000e+00
TDG3  SP1dh  1  3.650000e-01  2.340000e+00
TDG3  SX1eh  1  3.660000e-01  1.600000e+00
TDG3  SX2eh  1  3.650000e-01  1.750000e+00
TDG3  SX3eh  1  3.650000e-01  1.910000e+00
TDG3  SX4eh  1  3.650000e-01  1.910000e+00
TDG3  SC1eh  1  3.940000e-01  1.290000e+00
TDG3  SC2eh  1  3.780000e-01  1.450000e+00
TDG3  SC3eh  1  3.780000e-01  1.450000e+00
TDG3  SC4eh  1  3.660000e-01  1.600000e+00
TDG3  SC5eh  1  3.650000e-01  1.750000e+00
TDG3  SC6eh  1  3.650000e-01  1.910000e+00
TDG3  SX1vh  1  3.940000e-01  1.290000e+00
TDG3  SX2vh  1  3.780000e-01  1.450000e+00
TDG3  SX3vh  1  3.660000e-01  1.600000e+00
TDG3  SX4vh  1  3.660000e-01  1.600000e+00
TDG3  SC1vh  1  4.090000e-01  1.080000e+00
TDG3  SC2vh  1  4.040000e-01  1.130000e+00
TDG3  SC3vh  1  4.040000e-01  1.130000e+00
TDG3  SC4vh  1  3.940000e-01  1.290000e+00
TDG3  SC5vh  1  3.780000e-01  1.450000e+00
TDG3  SC6vh  1  3.660000e-01  1.600000e+00
TDG3  SN1ah  1  3.650000e-01  2.110000e+00
TDG3  SN2ah  1  3.650000e-01  2.110000e+00
TDG3  SN3ah  1  3.650000e-01  2.110000e+00
TDG3  SN4ah  1  3.650000e-01  2.570000e+00
TDG3  SN5ah  1  3.650000e-01  2.570000e+00
TDG3  SN6ah  1  3.650000e-01  2.830000e+00
TDG3  SP1ah  1  3.650000e-01  2.830000e+00
TDG3  SN1dh  1  3.650000e-01  1.750000e+00
TDG3  SN2dh  1  3.650000e-01  1.750000e+00
TDG3  SN3dh  1  3.650000e-01  1.750000e+00
TDG3  SN4dh  1  3.650000e-01  2.110000e+00
TDG3  SN5dh  1  3.650000e-01  2.110000e+00
TDG3  SN6dh  1  3.650000e-01  2.340000e+00
TDG3  SP1dr  1  3.650000e-01  2.340000e+00
TDG3  SX1er  1  3.660000e-01  1.600000e+00
TDG3  SX2er  1  3.650000e-01  1.750000e+00
TDG3  SX3er  1  3.650000e-01  1.910000e+00
TDG3  SX4er  1  3.650000e-01  1.910000e+00
TDG3  SC1er  1  3.940000e-01  1.290000e+00
TDG3  SC2er  1  3.780000e-01  1.450000e+00
TDG3  SC3er  1  3.780000e-01  1.450000e+00
TDG3  SC4er  1  3.660000e-01  1.600000e+00
TDG3  SC5er  1  3.650000e-01  1.750000e+00
TDG3  SC6er  1  3.650000e-01  1.910000e+00
TDG3  SX1vr  1  3.940000e-01  1.290000e+00
TDG3  SX2vr  1  3.780000e-01  1.450000e+00
TDG3  SX3vr  1  3.660000e-01  1.600000e+00
TDG3  SX4vr  1  3.660000e-01  1.600000e+00
TDG3  SC1vr  1  4.090000e-01  1.080000e+00
TDG3  SC2vr  1  4.040000e-01  1.130000e+00
TDG3  SC3vr  1  4.040000e-01  1.130000e+00
TDG3  SC4vr  1  3.940000e-01  1.290000e+00
TDG3  SC5vr  1  3.780000e-01  1.450000e+00
TDG3  SC6vr  1  3.660000e-01  1.600000e+00
TDG3  SN1ar  1  3.650000e-01  2.110000e+00
TDG3  SN2ar  1  3.650000e-01  2.110000e+00
TDG3  SN3ar  1  3.650000e-01  2.110000e+00
TDG3  SN4ar  1  3.650000e-01  2.570000e+00
TDG3  SN5ar  1  3.650000e-01  2.570000e+00
TDG3  SN6ar  1  3.650000e-01  2.830000e+00
TDG3  SP1ar  1  3.650000e-01  2.830000e+00
TDG3  SN1dr  1  3.650000e-01  1.750000e+00
TDG3  SN2dr  1  3.650000e-01  1.750000e+00
TDG3  SN3dr  1  3.650000e-01  1.750000e+00
TDG3  SN4dr  1  3.650000e-01  2.110000e+00
TDG3  SN5dr  1  3.650000e-01  2.110000e+00
TDG3  SN6dr  1  3.650000e-01  2.340000e+00
TDG3  SN6d  1  3.650000e-01  2.340000e+00
TDG3  SN5d  1  3.650000e-01  2.110000e+00
TDG3  SN4d  1  3.650000e-01  2.110000e+00
TDG3  SN3d  1  3.650000e-01  1.750000e+00
TDG3  SN2d  1  3.650000e-01  1.750000e+00
TDG3  SN1d  1  3.650000e-01  1.750000e+00
TDG3  SP1a  1  3.650000e-01  2.830000e+00
TDG3  SN6a  1  3.650000e-01  2.830000e+00
TDG3  SN5a  1  3.650000e-01  2.570000e+00
TDG3  SN4a  1  3.650000e-01  2.570000e+00
TDG3  SN3a  1  3.650000e-01  2.110000e+00
TDG3  SN2a  1  3.650000e-01  2.110000e+00
TDG3  SN1a  1  3.650000e-01  2.110000e+00
TDG3  SC6e  1  3.650000e-01  1.910000e+00
TDG3  SC5e  1  3.650000e-01  1.750000e+00
TDG3  SC4e  1  3.660000e-01  1.600000e+00
TDG3  SC3e  1  3.780000e-01  1.450000e+00
TDG3  SC2e  1  3.780000e-01  1.450000e+00
TDG3  SC1e  1  3.940000e-01  1.290000e+00
TDG3  SX4e  1  3.650000e-01  1.910000e+00
TDG3  SX3e  1  3.650000e-01  1.910000e+00
TDG3  SX2e  1  3.650000e-01  1.750000e+00
TDG3  SX1e  1  3.660000e-01  1.600000e+00
TDG3  SC6v  1  3.660000e-01  1.600000e+00
TDG3  SC5v  1  3.780000e-01  1.450000e+00
TDG3  SC4v  1  3.940000e-01  1.290000e+00
TDG3  SC3v  1  4.040000e-01  1.130000e+00
TDG3  SC2v  1  4.040000e-01  1.130000e+00
TDG3  SC1v  1  4.090000e-01  1.080000e+00
TDG3  SX4v  1  3.660000e-01  1.600000e+00
TDG3  SX3v  1  3.660000e-01  1.600000e+00
TDG3  SX2v  1  3.780000e-01  1.450000e+00
TDG3  SX1v  1  3.940000e-01  1.290000e+00
TDG3  SN6q  1  3.650000e-01  3.100000e+00
TDG3  SN5q  1  3.650000e-01  2.830000e+00
TDG3  SN4q  1  3.650000e-01  2.830000e+00
TDG3  SN3q  1  3.650000e-01  2.340000e+00
TDG3  SN2q  1  3.650000e-01  2.340000e+00
TDG3  SN1q  1  3.650000e-01  2.340000e+00
TDG3  SC6q  1  3.650000e-01  2.110000e+00
TDG3  SC5q  1  3.650000e-01  1.910000e+00
TDG3  SC4q  1  3.650000e-01  1.750000e+00
TDG3  SC3q  1  3.660000e-01  1.600000e+00
TDG3  SC2q  1  3.660000e-01  1.600000e+00
TDG3  SC1q  1  3.780000e-01  1.450000e+00
TDG3  SX4q  1  3.650000e-01  2.110000e+00
TDG3  SX3q  1  3.650000e-01  2.110000e+00
TDG3  SX2q  1  3.650000e-01  1.910000e+00
TDG3  SX1q  1  3.650000e-01  1.750000e+00
TDG3  SN6h  1  3.650000e-01  2.570000e+00
TDG3  SN5h  1  3.650000e-01  2.340000e+00
TDG3  SN4h  1  3.650000e-01  2.340000e+00
TDG3  SN3h  1  3.650000e-01  1.910000e+00
TDG3  SN2h  1  3.650000e-01  1.910000e+00
TDG3  SN1h  1  3.650000e-01  1.910000e+00
TDG3  SC6h  1  3.650000e-01  1.750000e+00
TDG3  SC5h  1  3.660000e-01  1.600000e+00
TDG3  SC4h  1  3.780000e-01  1.450000e+00
TDG3  SC3h  1  3.940000e-01  1.290000e+00
TDG3  SC2h  1  3.940000e-01  1.290000e+00
TDG3  SC1h  1  4.040000e-01  1.130000e+00
TDG3  SX4h  1  3.650000e-01  1.750000e+00
TDG3  SX3h  1  3.650000e-01  1.750000e+00
TDG3  SX2h  1  3.660000e-01  1.600000e+00
TDG3  SX1h  1  3.780000e-01  1.450000e+00
TDG3  SN6r  1  3.650000e-01  2.570000e+00
TDG3  SN5r  1  3.650000e-01  2.340000e+00
TDG3  SN4r  1  3.650000e-01  2.340000e+00
TDG3  SN3r  1  3.650000e-01  1.910000e+00
TDG3  SN2r  1  3.650000e-01  1.910000e+00
TDG3  SN1r  1  3.650000e-01  1.910000e+00
TDG3  SC6r  1  3.650000e-01  1.750000e+00
TDG3  SC5r  1  3.660000e-01  1.600000e+00
TDG3  SC4r  1  3.780000e-01  1.450000e+00
TDG3  SC3r  1  3.940000e-01  1.290000e+00
TDG3  SC2r  1  3.940000e-01  1.290000e+00
TDG3  SC1r  1  4.040000e-01  1.130000e+00
TDG3  SX4r  1  3.650000e-01  1.750000e+00
TDG3  SX3r  1  3.650000e-01  1.750000e+00
TDG3  SX2r  1  3.660000e-01  1.600000e+00
TDG3  SX1r  1  3.780000e-01  1.450000e+00
P6d  TDG3  1  3.950000e-01  2.940000e+00
P5d  TDG3  1  3.950000e-01  2.700000e+00
P4d  TDG3  1  3.950000e-01  2.700000e+00
P3d  TDG3  1  3.950000e-01  2.700000e+00
P2d  TDG3  1  3.950000e-01  2.700000e+00
P1d  TDG3  1  3.950000e-01  2.700000e+00
P6a  TDG3  1  3.950000e-01  3.430000e+00
P5a  TDG3  1  3.950000e-01  3.190000e+00
P4a  TDG3  1  3.950000e-01  3.190000e+00
P3a  TDG3  1  3.950000e-01  3.190000e+00
P2a  TDG3  1  3.950000e-01  3.190000e+00
P6q  TDG3  1  3.950000e-01  3.670000e+00
P5q  TDG3  1  3.950000e-01  3.430000e+00
P4q  TDG3  1  3.950000e-01  3.430000e+00
P3q  TDG3  1  3.950000e-01  3.430000e+00
P2q  TDG3  1  3.950000e-01  3.430000e+00
P1q  TDG3  1  3.950000e-01  3.430000e+00
P6dq  TDG3  1  3.950000e-01  3.430000e+00
P5dq  TDG3  1  3.950000e-01  3.190000e+00
P4dq  TDG3  1  3.950000e-01  3.190000e+00
P3dq  TDG3  1  3.950000e-01  3.190000e+00
P2dq  TDG3  1  3.950000e-01  3.190000e+00
P2aq  TDG3  1  3.950000e-01  3.670000e+00
P3aq  TDG3  1  3.950000e-01  3.670000e+00
P4aq  TDG3  1  3.950000e-01  3.670000e+00
P5aq  TDG3  1  3.950000e-01  3.670000e+00
P6aq  TDG3  1  3.950000e-01  3.910000e+00
P6h  TDG3  1  3.950000e-01  3.190000e+00
P5h  TDG3  1  3.950000e-01  2.940000e+00
P4h  TDG3  1  3.950000e-01  2.940000e+00
P3h  TDG3  1  3.950000e-01  2.940000e+00
P2h  TDG3  1  3.950000e-01  2.940000e+00
P1h  TDG3  1  3.950000e-01  2.940000e+00
P6dh  TDG3  1  3.950000e-01  2.940000e+00
P5dh  TDG3  1  3.950000e-01  2.700000e+00
P4dh  TDG3  1  3.950000e-01  2.700000e+00
P3dh  TDG3  1  3.950000e-01  2.700000e+00
P2dh  TDG3  1  3.950000e-01  2.700000e+00
P2ah  TDG3  1  3.950000e-01  3.190000e+00
P3ah  TDG3  1  3.950000e-01  3.190000e+00
P4ah  TDG3  1  3.950000e-01  3.190000e+00
P5ah  TDG3  1  3.950000e-01  3.190000e+00
P6ah  TDG3  1  3.950000e-01  3.430000e+00
P6r  TDG3  1  3.950000e-01  3.190000e+00
P5r  TDG3  1  3.950000e-01  2.940000e+00
P4r  TDG3  1  3.950000e-01  2.940000e+00
P3r  TDG3  1  3.950000e-01  2.940000e+00
P2r  TDG3  1  3.950000e-01  2.940000e+00
P1r  TDG3  1  3.950000e-01  2.940000e+00
P6dr  TDG3  1  3.950000e-01  2.940000e+00
P5dr  TDG3  1  3.950000e-01  2.700000e+00
P4dr  TDG3  1  3.950000e-01  2.700000e+00
P3dr  TDG3  1  3.950000e-01  2.700000e+00
P2dr  TDG3  1  3.950000e-01  2.700000e+00
P2ar  TDG3  1  3.950000e-01  3.190000e+00
P3ar  TDG3  1  3.950000e-01  3.190000e+00
P4ar  TDG3  1  3.950000e-01  3.190000e+00
P5ar  TDG3  1  3.950000e-01  3.190000e+00
P6ar  TDG3  1  3.950000e-01  3.430000e+00
TDG3  N6d  1  3.950000e-01  2.700000e+00
TDG3  N5d  1  3.950000e-01  2.500000e+00
TDG3  N4d  1  3.950000e-01  2.500000e+00
TDG3  N3d  1  3.950000e-01  2.110000e+00
TDG3  N2d  1  3.950000e-01  2.110000e+00
TDG3  N1d  1  3.950000e-01  2.110000e+00
TDG3  P1a  1  3.950000e-01  3.190000e+00
TDG3  N6a  1  3.950000e-01  3.190000e+00
TDG3  N5a  1  3.950000e-01  2.940000e+00
TDG3  N4a  1  3.950000e-01  2.940000e+00
TDG3  N3a  1  3.950000e-01  2.500000e+00
TDG3  N2a  1  3.950000e-01  2.500000e+00
TDG3  N1a  1  3.950000e-01  2.500000e+00
TDG3  C6e  1  3.950000e-01  2.310000e+00
TDG3  C5e  1  3.950000e-01  2.110000e+00
TDG3  C4e  1  3.950000e-01  1.850000e+00
TDG3  C3e  1  3.950000e-01  1.670000e+00
TDG3  C2e  1  3.950000e-01  1.670000e+00
TDG3  C1e  1  3.980000e-01  1.450000e+00
TDG3  X4e  1  3.950000e-01  2.310000e+00
TDG3  X3e  1  3.950000e-01  2.310000e+00
TDG3  X2e  1  3.950000e-01  2.110000e+00
TDG3  X1e  1  3.950000e-01  1.850000e+00
TDG3  C6v  1  3.950000e-01  1.850000e+00
TDG3  C5v  1  3.950000e-01  1.670000e+00
TDG3  C4v  1  3.980000e-01  1.450000e+00
TDG3  C3v  1  3.990000e-01  1.180000e+00
TDG3  C2v  1  3.990000e-01  1.180000e+00
TDG3  C1v  1  4.010000e-01  9.830000e-01
TDG3  X4v  1  3.950000e-01  1.850000e+00
TDG3  X3v  1  3.950000e-01  1.850000e+00
TDG3  X2v  1  3.950000e-01  1.670000e+00
TDG3  X1v  1  3.980000e-01  1.450000e+00
TDG3  N6q  1  3.950000e-01  3.430000e+00
TDG3  N5q  1  3.950000e-01  3.190000e+00
TDG3  N4q  1  3.950000e-01  3.190000e+00
TDG3  N3q  1  3.950000e-01  2.700000e+00
TDG3  N2q  1  3.950000e-01  2.700000e+00
TDG3  N1q  1  3.950000e-01  2.700000e+00
TDG3  C6q  1  3.950000e-01  2.500000e+00
TDG3  C5q  1  3.950000e-01  2.310000e+00
TDG3  C4q  1  3.950000e-01  2.110000e+00
TDG3  C3q  1  3.950000e-01  1.850000e+00
TDG3  C2q  1  3.950000e-01  1.850000e+00
TDG3  C1q  1  3.950000e-01  1.670000e+00
TDG3  X4q  1  3.950000e-01  2.500000e+00
TDG3  X3q  1  3.950000e-01  2.500000e+00
TDG3  X2q  1  3.950000e-01  2.310000e+00
TDG3  X1q  1  3.950000e-01  2.110000e+00
TDG3  P1dq  1  3.950000e-01  3.190000e+00
TDG3  X1eq  1  3.950000e-01  2.310000e+00
TDG3  X2eq  1  3.950000e-01  2.500000e+00
TDG3  X3eq  1  3.950000e-01  2.700000e+00
TDG3  X4eq  1  3.950000e-01  2.700000e+00
TDG3  C1eq  1  3.950000e-01  1.850000e+00
TDG3  C2eq  1  3.950000e-01  2.110000e+00
TDG3  C3eq  1  3.950000e-01  2.110000e+00
TDG3  C4eq  1  3.950000e-01  2.310000e+00
TDG3  C5eq  1  3.950000e-01  2.500000e+00
TDG3  C6eq  1  3.950000e-01  2.700000e+00
TDG3  X1vq  1  3.950000e-01  1.850000e+00
TDG3  X2vq  1  3.950000e-01  2.110000e+00
TDG3  X3vq  1  3.950000e-01  2.310000e+00
TDG3  X4vq  1  3.950000e-01  2.310000e+00
TDG3  C1vq  1  3.980000e-01  1.450000e+00
TDG3  C2vq  1  3.950000e-01  1.670000e+00
TDG3  C3vq  1  3.950000e-01  1.670000e+00
TDG3  C4vq  1  3.950000e-01  1.850000e+00
TDG3  C5vq  1  3.950000e-01  2.110000e+00
TDG3  C6vq  1  3.950000e-01  2.310000e+00
TDG3  N1aq  1  3.950000e-01  2.940000e+00
TDG3  N2aq  1  3.950000e-01  2.940000e+00
TDG3  N3aq  1  3.950000e-01  2.940000e+00
TDG3  N4aq  1  3.950000e-01  3.430000e+00
TDG3  N5aq  1  3.950000e-01  3.430000e+00
TDG3  N6aq  1  3.950000e-01  3.670000e+00
TDG3  P1aq  1  3.950000e-01  3.670000e+00
TDG3  N1dq  1  3.950000e-01  2.500000e+00
TDG3  N2dq  1  3.950000e-01  2.500000e+00
TDG3  N3dq  1  3.950000e-01  2.500000e+00
TDG3  N4dq  1  3.950000e-01  2.940000e+00
TDG3  N5dq  1  3.950000e-01  2.940000e+00
TDG3  N6dq  1  3.950000e-01  3.190000e+00
TDG3  N6h  1  3.950000e-01  2.940000e+00
TDG3  N5h  1  3.950000e-01  2.700000e+00
TDG3  N4h  1  3.950000e-01  2.700000e+00
TDG3  N3h  1  3.950000e-01  2.310000e+00
TDG3  N2h  1  3.950000e-01  2.310000e+00
TDG3  N1h  1  3.950000e-01  2.310000e+00
TDG3  C6h  1  3.950000e-01  2.110000e+00
TDG3  C5h  1  3.950000e-01  1.850000e+00
TDG3  C4h  1  3.950000e-01  1.670000e+00
TDG3  C3h  1  3.980000e-01  1.450000e+00
TDG3  C2h  1  3.980000e-01  1.450000e+00
TDG3  C1h  1  3.990000e-01  1.180000e+00
TDG3  X4h  1  3.950000e-01  2.110000e+00
TDG3  X3h  1  3.950000e-01  2.110000e+00
TDG3  X2h  1  3.950000e-01  1.850000e+00
TDG3  X1h  1  3.950000e-01  1.670000e+00
TDG3  P1dh  1  3.950000e-01  2.700000e+00
TDG3  X1eh  1  3.950000e-01  1.850000e+00
TDG3  X2eh  1  3.950000e-01  2.110000e+00
TDG3  X3eh  1  3.950000e-01  2.310000e+00
TDG3  X4eh  1  3.950000e-01  2.310000e+00
TDG3  C1eh  1  3.980000e-01  1.450000e+00
TDG3  C2eh  1  3.950000e-01  1.670000e+00
TDG3  C3eh  1  3.950000e-01  1.670000e+00
TDG3  C4eh  1  3.950000e-01  1.850000e+00
TDG3  C5eh  1  3.950000e-01  2.110000e+00
TDG3  C6eh  1  3.950000e-01  2.310000e+00
TDG3  X1vh  1  3.980000e-01  1.450000e+00
TDG3  X2vh  1  3.950000e-01  1.670000e+00
TDG3  X3vh  1  3.950000e-01  1.850000e+00
TDG3  X4vh  1  3.950000e-01  1.850000e+00
TDG3  C1vh  1  4.010000e-01  9.830000e-01
TDG3  C2vh  1  3.990000e-01  1.180000e+00
TDG3  C3vh  1  3.990000e-01  1.180000e+00
TDG3  C4vh  1  3.980000e-01  1.450000e+00
TDG3  C5vh  1  3.950000e-01  1.670000e+00
TDG3  C6vh  1  3.950000e-01  1.850000e+00
TDG3  N1ah  1  3.950000e-01  2.500000e+00
TDG3  N2ah  1  3.950000e-01  2.500000e+00
TDG3  N3ah  1  3.950000e-01  2.500000e+00
TDG3  N4ah  1  3.950000e-01  2.940000e+00
TDG3  N5ah  1  3.950000e-01  2.940000e+00
TDG3  N6ah  1  3.950000e-01  3.190000e+00
TDG3  P1ah  1  3.950000e-01  3.190000e+00
TDG3  N1dh  1  3.950000e-01  2.110000e+00
TDG3  N2dh  1  3.950000e-01  2.110000e+00
TDG3  N3dh  1  3.950000e-01  2.110000e+00
TDG3  N4dh  1  3.950000e-01  2.500000e+00
TDG3  N5dh  1  3.950000e-01  2.500000e+00
TDG3  N6dh  1  3.950000e-01  2.700000e+00
TDG3  N6r  1  3.950000e-01  2.940000e+00
TDG3  N5r  1  3.950000e-01  2.700000e+00
TDG3  N4r  1  3.950000e-01  2.700000e+00
TDG3  N3r  1  3.950000e-01  2.310000e+00
TDG3  N2r  1  3.950000e-01  2.310000e+00
TDG3  N1r  1  3.950000e-01  2.310000e+00
TDG3  C6r  1  3.950000e-01  2.110000e+00
TDG3  C5r  1  3.950000e-01  1.850000e+00
TDG3  C4r  1  3.950000e-01  1.670000e+00
TDG3  C3r  1  3.980000e-01  1.450000e+00
TDG3  C2r  1  3.980000e-01  1.450000e+00
TDG3  C1r  1  3.990000e-01  1.180000e+00
TDG3  X4r  1  3.950000e-01  2.110000e+00
TDG3  X3r  1  3.950000e-01  2.110000e+00
TDG3  X2r  1  3.950000e-01  1.850000e+00
TDG3  X1r  1  3.950000e-01  1.670000e+00
TDG3  P1dr  1  3.950000e-01  2.700000e+00
TDG3  X1er  1  3.950000e-01  1.850000e+00
TDG3  X2er  1  3.950000e-01  2.110000e+00
TDG3  X3er  1  3.950000e-01  2.310000e+00
TDG3  X4er  1  3.950000e-01  2.310000e+00
TDG3  C1er  1  3.980000e-01  1.450000e+00
TDG3  C2er  1  3.950000e-01  1.670000e+00
TDG3  C3er  1  3.950000e-01  1.670000e+00
TDG3  C4er  1  3.950000e-01  1.850000e+00
TDG3  C5er  1  3.950000e-01  2.110000e+00
TDG3  C6er  1  3.950000e-01  2.310000e+00
TDG3  X1vr  1  3.980000e-01  1.450000e+00
TDG3  X2vr  1  3.950000e-01  1.670000e+00
TDG3  X3vr  1  3.950000e-01  1.850000e+00
TDG3  X4vr  1  3.950000e-01  1.850000e+00
TDG3  C1vr  1  4.010000e-01  9.830000e-01
TDG3  C2vr  1  3.990000e-01  1.180000e+00
TDG3  C3vr  1  3.990000e-01  1.180000e+00
TDG3  C4vr  1  3.980000e-01  1.450000e+00
TDG3  C5vr  1  3.950000e-01  1.670000e+00
TDG3  C6vr  1  3.950000e-01  1.850000e+00
TDG3  N1ar  1  3.950000e-01  2.500000e+00
TDG3  N2ar  1  3.950000e-01  2.500000e+00
TDG3  N3ar  1  3.950000e-01  2.500000e+00
TDG3  N4ar  1  3.950000e-01  2.940000e+00
TDG3  N5ar  1  3.950000e-01  2.940000e+00
TDG3  N6ar  1  3.950000e-01  3.190000e+00
TDG3  P1ar  1  3.950000e-01  3.190000e+00
TDG3  N1dr  1  3.950000e-01  2.110000e+00
TDG3  N2dr  1  3.950000e-01  2.110000e+00
TDG3  N3dr  1  3.950000e-01  2.110000e+00
TDG3  N4dr  1  3.950000e-01  2.500000e+00
TDG3  N5dr  1  3.950000e-01  2.500000e+00
TDG3  N6dr  1  3.950000e-01  2.700000e+00
TDG3  TP1a  1  3.400000e-01  2.990000e+00
TDG3  TN6a  1  3.400000e-01  2.990000e+00
TDG3  TN5a  1  3.400000e-01  2.740000e+00
TDG3  TN4a  1  3.400000e-01  2.740000e+00
TDG3  TN3a  1  3.400000e-01  2.280000e+00
TDG3  TN2a  1  3.400000e-01  2.280000e+00
TDG3  TN1a  1  3.400000e-01  2.280000e+00
TDG3  TN1aq  1  3.400000e-01  2.740000e+00
TDG3  TN2aq  1  3.400000e-01  2.740000e+00
TDG3  TN3aq  1  3.400000e-01  2.740000e+00
TDG3  TN4aq  1  3.400000e-01  3.220000e+00
TDG3  TN5aq  1  3.400000e-01  3.220000e+00
TDG3  TN6aq  1  3.400000e-01  3.470000e+00
TDG3  TP1aq  1  3.400000e-01  3.470000e+00
TDG3  TN1ah  1  3.400000e-01  2.280000e+00
TDG3  TN2ah  1  3.400000e-01  2.280000e+00
TDG3  TN3ah  1  3.400000e-01  2.280000e+00
TDG3  TN4ah  1  3.400000e-01  2.740000e+00
TDG3  TN5ah  1  3.400000e-01  2.740000e+00
TDG3  TN6ah  1  3.400000e-01  2.990000e+00
TDG3  TP1ah  1  3.400000e-01  2.990000e+00
TDG3  TN1ar  1  3.400000e-01  2.280000e+00
TDG3  TN2ar  1  3.400000e-01  2.280000e+00
TDG3  TN3ar  1  3.400000e-01  2.280000e+00
TDG3  TN4ar  1  3.400000e-01  2.740000e+00
TDG3  TN5ar  1  3.400000e-01  2.740000e+00
TDG3  TN6ar  1  3.400000e-01  2.990000e+00
TDG3  TP1ar  1  3.400000e-01  2.990000e+00
TP6a  TDG3  1  3.400000e-01  3.220000e+00
TP5a  TDG3  1  3.400000e-01  2.990000e+00
TP4a  TDG3  1  3.400000e-01  2.990000e+00
TP3a  TDG3  1  3.400000e-01  2.990000e+00
TP2a  TDG3  1  3.400000e-01  2.990000e+00
TP2aq  TDG3  1  3.400000e-01  3.470000e+00
TP3aq  TDG3  1  3.400000e-01  3.470000e+00
TP4aq  TDG3  1  3.400000e-01  3.470000e+00
TP5aq  TDG3  1  3.400000e-01  3.470000e+00
TP6aq  TDG3  1  3.400000e-01  3.750000e+00
TP2ah  TDG3  1  3.400000e-01  2.990000e+00
TP3ah  TDG3  1  3.400000e-01  2.990000e+00
TP4ah  TDG3  1  3.400000e-01  2.990000e+00
TP5ah  TDG3  1  3.400000e-01  2.990000e+00
TP6ah  TDG3  1  3.400000e-01  3.220000e+00
TP2ar  TDG3  1  3.400000e-01  2.990000e+00
TP3ar  TDG3  1  3.400000e-01  2.990000e+00
TP4ar  TDG3  1  3.400000e-01  2.990000e+00
TP5ar  TDG3  1  3.400000e-01  2.990000e+00
TP6ar  TDG3  1  3.400000e-01  3.220000e+00
TDG3  TC6e  1  3.400000e-01  1.510000e+00
TDG3  TC5e  1  3.400000e-01  1.230000e+00
TDG3  TC4e  1  3.520000e-01  1.050000e+00
TDG3  TC3e  1  3.660000e-01  9.350000e-01
TDG3  TC2e  1  3.660000e-01  9.350000e-01
TDG3  TC1e  1  3.850000e-01  8.550000e-01
TDG3  TX4e  1  3.400000e-01  1.510000e+00
TDG3  TX3e  1  3.400000e-01  1.510000e+00
TDG3  TX2e  1  3.400000e-01  1.230000e+00
TDG3  TX1e  1  3.520000e-01  1.050000e+00
TDG3  TX1eq  1  3.400000e-01  1.510000e+00
TDG3  TX2eq  1  3.400000e-01  1.770000e+00
TDG3  TX3eq  1  3.400000e-01  2.020000e+00
TDG3  TX4eq  1  3.400000e-01  2.020000e+00
TDG3  TC1eq  1  3.520000e-01  1.050000e+00
TDG3  TC2eq  1  3.400000e-01  1.230000e+00
TDG3  TC3eq  1  3.400000e-01  1.230000e+00
TDG3  TC4eq  1  3.400000e-01  1.510000e+00
TDG3  TC5eq  1  3.400000e-01  1.770000e+00
TDG3  TC6eq  1  3.400000e-01  2.020000e+00
TDG3  TX1eh  1  3.520000e-01  1.050000e+00
TDG3  TX2eh  1  3.400000e-01  1.230000e+00
TDG3  TX3eh  1  3.400000e-01  1.510000e+00
TDG3  TX4eh  1  3.400000e-01  1.510000e+00
TDG3  TC1eh  1  3.850000e-01  8.550000e-01
TDG3  TC2eh  1  3.660000e-01  9.350000e-01
TDG3  TC3eh  1  3.660000e-01  9.350000e-01
TDG3  TC4eh  1  3.520000e-01  1.050000e+00
TDG3  TC5eh  1  3.400000e-01  1.230000e+00
TDG3  TC6eh  1  3.400000e-01  1.510000e+00
TDG3  TX1er  1  3.520000e-01  1.050000e+00
TDG3  TX2er  1  3.400000e-01  1.230000e+00
TDG3  TX3er  1  3.400000e-01  1.510000e+00
TDG3  TX4er  1  3.400000e-01  1.510000e+00
TDG3  TC1er  1  3.850000e-01  8.550000e-01
TDG3  TC2er  1  3.660000e-01  9.350000e-01
TDG3  TC3er  1  3.660000e-01  9.350000e-01
TDG3  TC4er  1  3.520000e-01  1.050000e+00
TDG3  TC5er  1  3.400000e-01  1.230000e+00
TDG3  TC6er  1  3.400000e-01  1.510000e+00
TDG3  TC6v  1  3.520000e-01  1.050000e+00
TDG3  TC5v  1  3.660000e-01  9.350000e-01
TDG3  TC4v  1  3.850000e-01  8.550000e-01
TDG3  TC3v  1  4.110000e-01  8.010000e-01
TDG3  TC2v  1  4.110000e-01  8.010000e-01
TDG3  TC1v  1  4.240000e-01  7.760000e-01
TDG3  TX4v  1  3.520000e-01  1.050000e+00
TDG3  TX3v  1  3.520000e-01  1.050000e+00
TDG3  TX2v  1  3.660000e-01  9.350000e-01
TDG3  TX1v  1  3.850000e-01  8.550000e-01
TDG3  TX1vq  1  3.520000e-01  1.050000e+00
TDG3  TX2vq  1  3.400000e-01  1.230000e+00
TDG3  TX3vq  1  3.400000e-01  1.510000e+00
TDG3  TX4vq  1  3.400000e-01  1.510000e+00
TDG3  TC1vq  1  3.850000e-01  8.550000e-01
TDG3  TC2vq  1  3.660000e-01  9.350000e-01
TDG3  TC3vq  1  3.660000e-01  9.350000e-01
TDG3  TC4vq  1  3.520000e-01  1.050000e+00
TDG3  TC5vq  1  3.400000e-01  1.230000e+00
TDG3  TC6vq  1  3.400000e-01  1.510000e+00
TDG3  TX1vh  1  3.850000e-01  8.550000e-01
TDG3  TX2vh  1  3.660000e-01  9.350000e-01
TDG3  TX3vh  1  3.520000e-01  1.050000e+00
TDG3  TX4vh  1  3.520000e-01  1.050000e+00
TDG3  TC1vh  1  4.240000e-01  7.760000e-01
TDG3  TC2vh  1  4.110000e-01  8.010000e-01
TDG3  TC3vh  1  4.110000e-01  8.010000e-01
TDG3  TC4vh  1  3.850000e-01  8.550000e-01
TDG3  TC5vh  1  3.660000e-01  9.350000e-01
TDG3  TC6vh  1  3.520000e-01  1.050000e+00
TDG3  TX1vr  1  3.850000e-01  8.550000e-01
TDG3  TX2vr  1  3.660000e-01  9.350000e-01
TDG3  TX3vr  1  3.520000e-01  1.050000e+00
TDG3  TX4vr  1  3.520000e-01  1.050000e+00
TDG3  TC1vr  1  4.240000e-01  7.760000e-01
TDG3  TC2vr  1  4.110000e-01  8.010000e-01
TDG3  TC3vr  1  4.110000e-01  8.010000e-01
TDG3  TC4vr  1  3.850000e-01  8.550000e-01
TDG3  TC5vr  1  3.660000e-01  9.350000e-01
TDG3  TC6vr  1  3.520000e-01  1.050000e+00
TDG3  TP1dq  1  3.400000e-01  2.500000e+00
TDG3  TN1dq  1  3.400000e-01  1.770000e+00
TDG3  TN2dq  1  3.400000e-01  1.770000e+00
TDG3  TN3dq  1  3.400000e-01  1.770000e+00
TDG3  TN4dq  1  3.400000e-01  2.280000e+00
TDG3  TN5dq  1  3.400000e-01  2.280000e+00
TDG3  TN6dq  1  3.400000e-01  2.500000e+00
TDG3  TP1dh  1  3.400000e-01  2.020000e+00
TDG3  TN1dh  1  3.400000e-01  1.230000e+00
TDG3  TN2dh  1  3.400000e-01  1.230000e+00
TDG3  TN3dh  1  3.400000e-01  1.230000e+00
TDG3  TN4dh  1  3.400000e-01  1.770000e+00
TDG3  TN5dh  1  3.400000e-01  1.770000e+00
TDG3  TN6dh  1  3.400000e-01  2.020000e+00
TDG3  TP1dr  1  3.400000e-01  2.020000e+00
TDG3  TN1dr  1  3.400000e-01  1.230000e+00
TDG3  TN2dr  1  3.400000e-01  1.230000e+00
TDG3  TN3dr  1  3.400000e-01  1.230000e+00
TDG3  TN4dr  1  3.400000e-01  1.770000e+00
TDG3  TN5dr  1  3.400000e-01  1.770000e+00
TDG3  TN6dr  1  3.400000e-01  2.020000e+00
TP6d  TDG3  1  3.400000e-01  2.280000e+00
TP5d  TDG3  1  3.400000e-01  2.020000e+00
TP4d  TDG3  1  3.400000e-01  2.020000e+00
TP3d  TDG3  1  3.400000e-01  2.020000e+00
TP2d  TDG3  1  3.400000e-01  2.020000e+00
TDG3  TP1d  1  3.400000e-01  2.020000e+00
TDG3  TN6d  1  3.400000e-01  2.020000e+00
TDG3  TN5d  1  3.400000e-01  1.770000e+00
TDG3  TN4d  1  3.400000e-01  1.770000e+00
TDG3  TN3d  1  3.400000e-01  1.230000e+00
TDG3  TN2d  1  3.400000e-01  1.230000e+00
TDG3  TN1d  1  3.400000e-01  1.230000e+00
TP6q  TDG3  1  3.400000e-01  2.990000e+00
TP5q  TDG3  1  3.400000e-01  2.740000e+00
TP4q  TDG3  1  3.400000e-01  2.740000e+00
TP3q  TDG3  1  3.400000e-01  2.740000e+00
TP2q  TDG3  1  3.400000e-01  2.740000e+00
TP1q  TDG3  1  3.400000e-01  2.740000e+00
TDG3  TN6q  1  3.400000e-01  2.740000e+00
TDG3  TN5q  1  3.400000e-01  2.500000e+00
TDG3  TN4q  1  3.400000e-01  2.500000e+00
TDG3  TN3q  1  3.400000e-01  2.020000e+00
TDG3  TN2q  1  3.400000e-01  2.020000e+00
TDG3  TN1q  1  3.400000e-01  2.020000e+00
TDG3  TC6q  1  3.400000e-01  1.770000e+00
TDG3  TC5q  1  3.400000e-01  1.510000e+00
TDG3  TC4q  1  3.400000e-01  1.230000e+00
TDG3  TC3q  1  3.520000e-01  1.050000e+00
TDG3  TC2q  1  3.520000e-01  1.050000e+00
TDG3  TC1q  1  3.660000e-01  9.350000e-01
TDG3  TX4q  1  3.400000e-01  1.770000e+00
TDG3  TX3q  1  3.400000e-01  1.770000e+00
TDG3  TX2q  1  3.400000e-01  1.510000e+00
TDG3  TX1q  1  3.400000e-01  1.230000e+00
TP6h  TDG3  1  3.400000e-01  2.500000e+00
TP5h  TDG3  1  3.400000e-01  2.280000e+00
TP4h  TDG3  1  3.400000e-01  2.280000e+00
TP3h  TDG3  1  3.400000e-01  2.280000e+00
TP2h  TDG3  1  3.400000e-01  2.280000e+00
TP1h  TDG3  1  3.400000e-01  2.280000e+00
TDG3  TN6h  1  3.400000e-01  2.280000e+00
TDG3  TN5h  1  3.400000e-01  2.020000e+00
TDG3  TN4h  1  3.400000e-01  2.020000e+00
TDG3  TN3h  1  3.400000e-01  1.510000e+00
TDG3  TN2h  1  3.400000e-01  1.510000e+00
TDG3  TN1h  1  3.400000e-01  1.510000e+00
TDG3  TC6h  1  3.400000e-01  1.230000e+00
TDG3  TC5h  1  3.520000e-01  1.050000e+00
TDG3  TC4h  1  3.660000e-01  9.350000e-01
TDG3  TC3h  1  3.850000e-01  8.550000e-01
TDG3  TC2h  1  3.850000e-01  8.550000e-01
TDG3  TC1h  1  4.110000e-01  8.010000e-01
TDG3  TX4h  1  3.400000e-01  1.230000e+00
TDG3  TX3h  1  3.400000e-01  1.230000e+00
TDG3  TX2h  1  3.520000e-01  1.050000e+00
TDG3  TX1h  1  3.660000e-01  9.350000e-01
TP6r  TDG3  1  3.400000e-01  2.500000e+00
TP5r  TDG3  1  3.400000e-01  2.280000e+00
TP4r  TDG3  1  3.400000e-01  2.280000e+00
TP3r  TDG3  1  3.400000e-01  2.280000e+00
TP2r  TDG3  1  3.400000e-01  2.280000e+00
TP1r  TDG3  1  3.400000e-01  2.280000e+00
TDG3  TN6r  1  3.400000e-01  2.280000e+00
TDG3  TN5r  1  3.400000e-01  2.020000e+00
TDG3  TN4r  1  3.400000e-01  2.020000e+00
TDG3  TN3r  1  3.400000e-01  1.510000e+00
TDG3  TN2r  1  3.400000e-01  1.510000e+00
TDG3  TN1r  1  3.400000e-01  1.510000e+00
TDG3  TC6r  1  3.400000e-01  1.230000e+00
TDG3  TC5r  1  3.520000e-01  1.050000e+00
TDG3  TC4r  1  3.660000e-01  9.350000e-01
TDG3  TC3r  1  3.850000e-01  8.550000e-01
TDG3  TC2r  1  3.850000e-01  8.550000e-01
TDG3  TC1r  1  4.110000e-01  8.010000e-01
TDG3  TX4r  1  3.400000e-01  1.230000e+00
TDG3  TX3r  1  3.400000e-01  1.230000e+00
TDG3  TX2r  1  3.520000e-01  1.050000e+00
TDG3  TX1r  1  3.660000e-01  9.350000e-01
TP6dq  TDG3  1  3.400000e-01  2.740000e+00
TP5dq  TDG3  1  3.400000e-01  2.500000e+00
TP4dq  TDG3  1  3.400000e-01  2.500000e+00
TP3dq  TDG3  1  3.400000e-01  2.500000e+00
TP2dq  TDG3  1  3.400000e-01  2.500000e+00
TP6dh  TDG3  1  3.400000e-01  2.280000e+00
TP5dh  TDG3  1  3.400000e-01  2.020000e+00
TP4dh  TDG3  1  3.400000e-01  2.020000e+00
TP3dh  TDG3  1  3.400000e-01  2.020000e+00
TP2dh  TDG3  1  3.400000e-01  2.020000e+00
TP6dr  TDG3  1  3.400000e-01  2.280000e+00
TP5dr  TDG3  1  3.400000e-01  2.020000e+00
TP4dr  TDG3  1  3.400000e-01  2.020000e+00
TP3dr  TDG3  1  3.400000e-01  2.020000e+00
TP2dr  TDG3  1  3.400000e-01  2.020000e+00
W  TDG3  1  3.850000e-01  3.100000e+00
SW  TDG3  1  3.750000e-01  2.430000e+00
TW  TDG3  1  3.450000e-01  2.370000e+00
TDG3  D  1  3.950000e-01  4.517000e+00
TDG3  SD  1  3.650000e-01  1.044900e+01
TDG3  TD  1  3.400000e-01  1.232200e+01
TDG3  Q5  1  3.950000e-01  4.027000e+00
TDG3  SQ5  1  3.650000e-01  5.329000e+00
TDG3  TQ5  1  3.400000e-01  7.299000e+00
TDG3  Q5p  1  3.950000e-01  3.787000e+00
TDG3  SQ5p  1  3.650000e-01  5.059000e+00
TDG3  TQ5p  1  3.400000e-01  7.049000e+00
TDG3  Q5n  1  3.950000e-01  4.587000e+00
TDG3  SQ5n  1  3.650000e-01  5.889000e+00
TDG3  TQ5n  1  3.400000e-01  8.059000e+00
TDG3  Q4  1  3.950000e-01  3.793000e+00
TDG3  SQ4  1  3.650000e-01  5.092000e+00
TDG3  TQ4  1  3.400000e-01  7.122000e+00
TDG3  Q4p  1  3.950000e-01  3.553000e+00
TDG3  SQ4p  1  3.650000e-01  4.822000e+00
TDG3  TQ4p  1  3.400000e-01  6.882000e+00
TDG3  Q4n  1  3.950000e-01  4.273000e+00
TDG3  SQ4n  1  3.650000e-01  5.632000e+00
TDG3  TQ4n  1  3.400000e-01  7.852000e+00
TDG3  Q3  1  3.950000e-01  3.572000e+00
TDG3  SQ3  1  3.650000e-01  4.928000e+00
TDG3  TQ3  1  3.400000e-01  7.115000e+00
TDG3  Q3p  1  3.950000e-01  3.572000e+00
TDG3  SQ3p  1  3.650000e-01  4.928000e+00
TDG3  TQ3p  1  3.400000e-01  7.115000e+00
TDG3  Q3n  1  3.950000e-01  4.052000e+00
TDG3  SQ3n  1  3.650000e-01  5.468000e+00
TDG3  TQ3n  1  3.400000e-01  7.835000e+00
TDG3  Q2  1  3.950000e-01  3.585000e+00
TDG3  SQ2  1  3.650000e-01  4.996000e+00
TDG3  TQ2  1  3.400000e-01  7.264000e+00
TDG3  Q2p  1  3.950000e-01  3.585000e+00
TDG3  SQ2p  1  3.650000e-01  4.996000e+00
TDG3  TQ2p  1  3.400000e-01  7.264000e+00
TDG3  Q2n  1  3.950000e-01  4.065000e+00
TDG3  SQ2n  1  3.650000e-01  5.536000e+00
TDG3  TQ2n  1  3.400000e-01  7.984000e+00
TDG3  Q1  1  3.950000e-01  3.831000e+00
TDG3  SQ1  1  3.650000e-01  5.302000e+00
TDG3  TQ1  1  3.400000e-01  7.585000e+00
TDG3  Q1p  1  3.950000e-01  3.591000e+00
TDG3  SQ1p  1  3.650000e-01  5.032000e+00
TDG3  TQ1p  1  3.400000e-01  7.345000e+00
TDG3  Q1n  1  3.950000e-01  4.311000e+00
TDG3  SQ1n  1  3.650000e-01  5.842000e+00
TDG3  TQ1n  1  3.400000e-01  8.315000e+00
P6  TDG4  1  3.950000e-01  3.430000e+00
SP6  TDG4  1  3.650000e-01  3.100000e+00
TP6  TDG4  1  3.400000e-01  2.740000e+00
P5  TDG4  1  3.950000e-01  3.190000e+00
SP5  TDG4  1  3.650000e-01  2.830000e+00
TP5  TDG4  1  3.400000e-01  2.500000e+00
P4  TDG4  1  3.950000e-01  3.190000e+00
SP4  TDG4  1  3.650000e-01  2.830000e+00
TP4  TDG4  1  3.400000e-01  2.500000e+00
P3  TDG4  1  3.950000e-01  3.190000e+00
SP3  TDG4  1  3.650000e-01  2.830000e+00
TP3  TDG4  1  3.400000e-01  2.500000e+00
P2  TDG4  1  3.950000e-01  3.190000e+00
SP2  TDG4  1  3.650000e-01  2.830000e+00
TP2  TDG4  1  3.400000e-01  2.500000e+00
TDG4  P1  1  3.950000e-01  2.940000e+00
TDG4  SP1  1  3.650000e-01  2.570000e+00
TDG4  TP1  1  3.400000e-01  2.280000e+00
TDG4  N6  1  3.950000e-01  2.940000e+00
TDG4  SN6  1  3.650000e-01  2.570000e+00
TDG4  TN6  1  3.400000e-01  2.280000e+00
TDG4  N5  1  3.950000e-01  2.700000e+00
TDG4  SN5  1  3.650000e-01  2.340000e+00
TDG4  TN5  1  3.400000e-01  2.020000e+00
TDG4  N4  1  3.950000e-01  2.500000e+00
TDG4  SN4  1  3.650000e-01  2.110000e+00
TDG4  TN4  1  3.400000e-01  1.770000e+00
TDG4  N3  1  3.950000e-01  2.310000e+00
TDG4  SN3  1  3.650000e-01  1.910000e+00
TDG4  TN3  1  3.400000e-01  1.510000e+00
TDG4  N2  1  3.950000e-01  2.310000e+00
TDG4  SN2  1  3.650000e-01  1.910000e+00
TDG4  TN2  1  3.400000e-01  1.510000e+00
TDG4  N1  1  3.950000e-01  2.310000e+00
TDG4  SN1  1  3.650000e-01  1.910000e+00
TDG4  TN1  1  3.400000e-01  1.510000e+00
TDG4  C6  1  3.950000e-01  2.110000e+00
TDG4  SC6  1  3.650000e-01  1.750000e+00
TDG4  TC6  1  3.400000e-01  1.230000e+00
TDG4  C5  1  3.950000e-01  1.850000e+00
TDG4  SC5  1  3.660000e-01  1.600000e+00
TDG4  TC5  1  3.520000e-01  1.050000e+00
TDG4  C4  1  3.950000e-01  1.670000e+00
TDG4  SC4  1  3.780000e-01  1.450000e+00
TDG4  TC4  1  3.660000e-01  9.350000e-01
TDG4  C3  1  3.980000e-01  1.450000e+00
TDG4  SC3  1  3.940000e-01  1.290000e+00
TDG4  TC3  1  3.850000e-01  8.550000e-01
TDG4  C2  1  3.980000e-01  1.450000e+00
TDG4  SC2  1  3.940000e-01  1.290000e+00
TDG4  TC2  1  3.850000e-01  8.550000e-01
TDG4  C1  1  3.990000e-01  1.180000e+00
TDG4  SC1  1  4.040000e-01  1.130000e+00
TDG4  TC1  1  4.110000e-01  8.010000e-01
TDG4  X4  1  3.950000e-01  2.110000e+00
TDG4  SX4  1  3.650000e-01  1.750000e+00
TDG4  TX4  1  3.400000e-01  1.230000e+00
TDG4  X3  1  3.950000e-01  2.110000e+00
TDG4  SX3  1  3.650000e-01  1.750000e+00
TDG4  TX3  1  3.400000e-01  1.230000e+00
TDG4  X2  1  3.950000e-01  1.850000e+00
TDG4  SX2  1  3.660000e-01  1.600000e+00
TDG4  TX2  1  3.520000e-01  1.050000e+00
TDG4  X1  1  3.950000e-01  1.670000e+00
TDG4  SX1  1  3.780000e-01  1.450000e+00
TDG4  TX1  1  3.660000e-01  9.350000e-01
SP6a  TDG4  1  3.650000e-01  2.830000e+00
SP5a  TDG4  1  3.650000e-01  2.570000e+00
SP4a  TDG4  1  3.650000e-01  2.570000e+00
SP3a  TDG4  1  3.650000e-01  2.570000e+00
SP2a  TDG4  1  3.650000e-01  2.570000e+00
SP6d  TDG4  1  3.650000e-01  3.370000e+00
SP5d  TDG4  1  3.650000e-01  3.100000e+00
SP4d  TDG4  1  3.650000e-01  3.100000e+00
SP3d  TDG4  1  3.650000e-01  3.100000e+00
SP2d  TDG4  1  3.650000e-01  3.100000e+00
SP6q  TDG4  1  3.650000e-01  3.640000e+00
SP5q  TDG4  1  3.650000e-01  3.370000e+00
SP4q  TDG4  1  3.650000e-01  3.370000e+00
SP3q  TDG4  1  3.650000e-01  3.370000e+00
SP2q  TDG4  1  3.650000e-01  3.370000e+00
SP6h  TDG4  1  3.650000e-01  3.100000e+00
SP5h  TDG4  1  3.650000e-01  2.830000e+00
SP4h  TDG4  1  3.650000e-01  2.830000e+00
SP3h  TDG4  1  3.650000e-01  2.830000e+00
SP2h  TDG4  1  3.650000e-01  2.830000e+00
SP6r  TDG4  1  3.650000e-01  3.100000e+00
SP5r  TDG4  1  3.650000e-01  2.830000e+00
SP4r  TDG4  1  3.650000e-01  2.830000e+00
SP3r  TDG4  1  3.650000e-01  2.830000e+00
SP2r  TDG4  1  3.650000e-01  2.830000e+00
SP6dq  TDG4  1  3.650000e-01  3.930000e+00
SP5dq  TDG4  1  3.650000e-01  3.640000e+00
SP4dq  TDG4  1  3.650000e-01  3.640000e+00
SP3dq  TDG4  1  3.650000e-01  3.640000e+00
SP2dq  TDG4  1  3.650000e-01  3.640000e+00
SP6aq  TDG4  1  3.650000e-01  3.370000e+00
SP5aq  TDG4  1  3.650000e-01  3.100000e+00
SP4aq  TDG4  1  3.650000e-01  3.100000e+00
SP3aq  TDG4  1  3.650000e-01  3.100000e+00
SP6dh  TDG4  1  3.650000e-01  3.370000e+00
SP5dh  TDG4  1  3.650000e-01  3.100000e+00
SP4dh  TDG4  1  3.650000e-01  3.100000e+00
SP3dh  TDG4  1  3.650000e-01  3.100000e+00
SP2dh  TDG4  1  3.650000e-01  3.100000e+00
SP6ah  TDG4  1  3.650000e-01  2.830000e+00
SP5ah  TDG4  1  3.650000e-01  2.570000e+00
SP4ah  TDG4  1  3.650000e-01  2.570000e+00
SP3ah  TDG4  1  3.650000e-01  2.570000e+00
SP6dr  TDG4  1  3.650000e-01  3.370000e+00
SP5dr  TDG4  1  3.650000e-01  3.100000e+00
SP4dr  TDG4  1  3.650000e-01  3.100000e+00
SP3dr  TDG4  1  3.650000e-01  3.100000e+00
SP2dr  TDG4  1  3.650000e-01  3.100000e+00
SP6ar  TDG4  1  3.650000e-01  2.830000e+00
SP5ar  TDG4  1  3.650000e-01  2.570000e+00
SP4ar  TDG4  1  3.650000e-01  2.570000e+00
SP3ar  TDG4  1  3.650000e-01  2.570000e+00
TDG4  SP1dq  1  3.650000e-01  3.370000e+00
TDG4  SN6dq  1  3.650000e-01  3.370000e+00
TDG4  SN5dq  1  3.650000e-01  3.100000e+00
TDG4  SN4dq  1  3.650000e-01  2.830000e+00
TDG4  SN3dq  1  3.650000e-01  2.570000e+00
TDG4  SN2dq  1  3.650000e-01  2.570000e+00
TDG4  SN1dq  1  3.650000e-01  2.570000e+00
TDG4  SP2aq  1  3.650000e-01  3.100000e+00
TDG4  SX1eq  1  3.660000e-01  1.600000e+00
TDG4  SX2eq  1  3.650000e-01  1.750000e+00
TDG4  SX3eq  1  3.650000e-01  1.910000e+00
TDG4  SX4eq  1  3.650000e-01  1.910000e+00
TDG4  SC1eq  1  3.940000e-01  1.290000e+00
TDG4  SC2eq  1  3.780000e-01  1.450000e+00
TDG4  SC3eq  1  3.780000e-01  1.450000e+00
TDG4  SC4eq  1  3.660000e-01  1.600000e+00
TDG4  SC5eq  1  3.650000e-01  1.750000e+00
TDG4  SC6eq  1  3.650000e-01  1.910000e+00
TDG4  SX1vq  1  3.650000e-01  1.910000e+00
TDG4  SX2vq  1  3.650000e-01  2.110000e+00
TDG4  SX3vq  1  3.650000e-01  2.340000e+00
TDG4  SX4vq  1  3.650000e-01  2.340000e+00
TDG4  SC1vq  1  3.660000e-01  1.600000e+00
TDG4  SC2vq  1  3.650000e-01  1.750000e+00
TDG4  SC3vq  1  3.650000e-01  1.750000e+00
TDG4  SC4vq  1  3.650000e-01  1.910000e+00
TDG4  SC5vq  1  3.650000e-01  2.110000e+00
TDG4  SC6vq  1  3.650000e-01  2.340000e+00
TDG4  SN1aq  1  3.650000e-01  2.110000e+00
TDG4  SN2aq  1  3.650000e-01  2.110000e+00
TDG4  SN3aq  1  3.650000e-01  2.110000e+00
TDG4  SN4aq  1  3.650000e-01  2.340000e+00
TDG4  SN5aq  1  3.650000e-01  2.570000e+00
TDG4  SN6aq  1  3.650000e-01  2.830000e+00
TDG4  SP1aq  1  3.650000e-01  2.830000e+00
TDG4  SP1dh  1  3.650000e-01  2.830000e+00
TDG4  SN6dh  1  3.650000e-01  2.830000e+00
TDG4  SN5dh  1  3.650000e-01  2.570000e+00
TDG4  SN4dh  1  3.650000e-01  2.340000e+00
TDG4  SN3dh  1  3.650000e-01  2.110000e+00
TDG4  SN2dh  1  3.650000e-01  2.110000e+00
TDG4  SN1dh  1  3.650000e-01  2.110000e+00
TDG4  SP2ah  1  3.650000e-01  2.570000e+00
TDG4  SX1eh  1  3.940000e-01  1.290000e+00
TDG4  SX2eh  1  3.780000e-01  1.450000e+00
TDG4  SX3eh  1  3.660000e-01  1.600000e+00
TDG4  SX4eh  1  3.660000e-01  1.600000e+00
TDG4  SC1eh  1  4.090000e-01  1.080000e+00
TDG4  SC2eh  1  4.040000e-01  1.130000e+00
TDG4  SC3eh  1  4.040000e-01  1.130000e+00
TDG4  SC4eh  1  3.940000e-01  1.290000e+00
TDG4  SC5eh  1  3.780000e-01  1.450000e+00
TDG4  SC6eh  1  3.660000e-01  1.600000e+00
TDG4  SX1vh  1  3.660000e-01  1.600000e+00
TDG4  SX2vh  1  3.650000e-01  1.750000e+00
TDG4  SX3vh  1  3.650000e-01  1.910000e+00
TDG4  SX4vh  1  3.650000e-01  1.910000e+00
TDG4  SC1vh  1  3.940000e-01  1.290000e+00
TDG4  SC2vh  1  3.780000e-01  1.450000e+00
TDG4  SC3vh  1  3.780000e-01  1.450000e+00
TDG4  SC4vh  1  3.660000e-01  1.600000e+00
TDG4  SC5vh  1  3.650000e-01  1.750000e+00
TDG4  SC6vh  1  3.650000e-01  1.910000e+00
TDG4  SN1ah  1  3.650000e-01  1.750000e+00
TDG4  SN2ah  1  3.650000e-01  1.750000e+00
TDG4  SN3ah  1  3.650000e-01  1.750000e+00
TDG4  SN4ah  1  3.650000e-01  1.910000e+00
TDG4  SN5ah  1  3.650000e-01  2.110000e+00
TDG4  SN6ah  1  3.650000e-01  2.340000e+00
TDG4  SP1ah  1  3.650000e-01  2.340000e+00
TDG4  SP1dr  1  3.650000e-01  2.830000e+00
TDG4  SN6dr  1  3.650000e-01  2.830000e+00
TDG4  SN5dr  1  3.650000e-01  2.570000e+00
TDG4  SN4dr  1  3.650000e-01  2.340000e+00
TDG4  SN3dr  1  3.650000e-01  2.110000e+00
TDG4  SN2dr  1  3.650000e-01  2.110000e+00
TDG4  SN1dr  1  3.650000e-01  2.110000e+00
TDG4  SP2ar  1  3.650000e-01  2.570000e+00
TDG4  SX1er  1  3.940000e-01  1.290000e+00
TDG4  SX2er  1  3.780000e-01  1.450000e+00
TDG4  SX3er  1  3.660000e-01  1.600000e+00
TDG4  SX4er  1  3.660000e-01  1.600000e+00
TDG4  SC1er  1  4.090000e-01  1.080000e+00
TDG4  SC2er  1  4.040000e-01  1.130000e+00
TDG4  SC3er  1  4.040000e-01  1.130000e+00
TDG4  SC4er  1  3.940000e-01  1.290000e+00
TDG4  SC5er  1  3.780000e-01  1.450000e+00
TDG4  SC6er  1  3.660000e-01  1.600000e+00
TDG4  SX1vr  1  3.660000e-01  1.600000e+00
TDG4  SX2vr  1  3.650000e-01  1.750000e+00
TDG4  SX3vr  1  3.650000e-01  1.910000e+00
TDG4  SX4vr  1  3.650000e-01  1.910000e+00
TDG4  SC1vr  1  3.940000e-01  1.290000e+00
TDG4  SC2vr  1  3.780000e-01  1.450000e+00
TDG4  SC3vr  1  3.780000e-01  1.450000e+00
TDG4  SC4vr  1  3.660000e-01  1.600000e+00
TDG4  SC5vr  1  3.650000e-01  1.750000e+00
TDG4  SC6vr  1  3.650000e-01  1.910000e+00
TDG4  SN1ar  1  3.650000e-01  1.750000e+00
TDG4  SN2ar  1  3.650000e-01  1.750000e+00
TDG4  SN3ar  1  3.650000e-01  1.750000e+00
TDG4  SN4ar  1  3.650000e-01  1.910000e+00
TDG4  SN5ar  1  3.650000e-01  2.110000e+00
TDG4  SN6ar  1  3.650000e-01  2.340000e+00
TDG4  SP1ar  1  3.650000e-01  2.340000e+00
TDG4  SP1a  1  3.650000e-01  2.340000e+00
TDG4  SN6a  1  3.650000e-01  2.340000e+00
TDG4  SN5a  1  3.650000e-01  2.110000e+00
TDG4  SN4a  1  3.650000e-01  1.910000e+00
TDG4  SN3a  1  3.650000e-01  1.750000e+00
TDG4  SN2a  1  3.650000e-01  1.750000e+00
TDG4  SN1a  1  3.650000e-01  1.750000e+00
TDG4  SP1d  1  3.650000e-01  2.830000e+00
TDG4  SN6d  1  3.650000e-01  2.830000e+00
TDG4  SN5d  1  3.650000e-01  2.570000e+00
TDG4  SN4d  1  3.650000e-01  2.340000e+00
TDG4  SN3d  1  3.650000e-01  2.110000e+00
TDG4  SN2d  1  3.650000e-01  2.110000e+00
TDG4  SN1d  1  3.650000e-01  2.110000e+00
TDG4  SC6v  1  3.650000e-01  1.910000e+00
TDG4  SC5v  1  3.650000e-01  1.750000e+00
TDG4  SC4v  1  3.660000e-01  1.600000e+00
TDG4  SC3v  1  3.780000e-01  1.450000e+00
TDG4  SC2v  1  3.780000e-01  1.450000e+00
TDG4  SC1v  1  3.940000e-01  1.290000e+00
TDG4  SX4v  1  3.650000e-01  1.910000e+00
TDG4  SX3v  1  3.650000e-01  1.910000e+00
TDG4  SX2v  1  3.650000e-01  1.750000e+00
TDG4  SX1v  1  3.660000e-01  1.600000e+00
TDG4  SC6e  1  3.660000e-01  1.600000e+00
TDG4  SC5e  1  3.780000e-01  1.450000e+00
TDG4  SC4e  1  3.940000e-01  1.290000e+00
TDG4  SC3e  1  4.040000e-01  1.130000e+00
TDG4  SC2e  1  4.040000e-01  1.130000e+00
TDG4  SC1e  1  4.090000e-01  1.080000e+00
TDG4  SX4e  1  3.660000e-01  1.600000e+00
TDG4  SX3e  1  3.660000e-01  1.600000e+00
TDG4  SX2e  1  3.780000e-01  1.450000e+00
TDG4  SX1e  1  3.940000e-01  1.290000e+00
TDG4  SP1q  1  3.650000e-01  3.100000e+00
TDG4  SN6q  1  3.650000e-01  3.100000e+00
TDG4  SN5q  1  3.650000e-01  2.830000e+00
TDG4  SN4q  1  3.650000e-01  2.570000e+00
TDG4  SN3q  1  3.650000e-01  2.340000e+00
TDG4  SN2q  1  3.650000e-01  2.340000e+00
TDG4  SN1q  1  3.650000e-01  2.340000e+00
TDG4  SC6q  1  3.650000e-01  2.110000e+00
TDG4  SC5q  1  3.650000e-01  1.910000e+00
TDG4  SC4q  1  3.650000e-01  1.750000e+00
TDG4  SC3q  1  3.660000e-01  1.600000e+00
TDG4  SC2q  1  3.660000e-01  1.600000e+00
TDG4  SC1q  1  3.780000e-01  1.450000e+00
TDG4  SX4q  1  3.650000e-01  2.110000e+00
TDG4  SX3q  1  3.650000e-01  2.110000e+00
TDG4  SX2q  1  3.650000e-01  1.910000e+00
TDG4  SX1q  1  3.650000e-01  1.750000e+00
TDG4  SP1h  1  3.650000e-01  2.570000e+00
TDG4  SN6h  1  3.650000e-01  2.570000e+00
TDG4  SN5h  1  3.650000e-01  2.340000e+00
TDG4  SN4h  1  3.650000e-01  2.110000e+00
TDG4  SN3h  1  3.650000e-01  1.910000e+00
TDG4  SN2h  1  3.650000e-01  1.910000e+00
TDG4  SN1h  1  3.650000e-01  1.910000e+00
TDG4  SC6h  1  3.650000e-01  1.750000e+00
TDG4  SC5h  1  3.660000e-01  1.600000e+00
TDG4  SC4h  1  3.780000e-01  1.450000e+00
TDG4  SC3h  1  3.940000e-01  1.290000e+00
TDG4  SC2h  1  3.940000e-01  1.290000e+00
TDG4  SC1h  1  4.040000e-01  1.130000e+00
TDG4  SX4h  1  3.650000e-01  1.750000e+00
TDG4  SX3h  1  3.650000e-01  1.750000e+00
TDG4  SX2h  1  3.660000e-01  1.600000e+00
TDG4  SX1h  1  3.780000e-01  1.450000e+00
TDG4  SP1r  1  3.650000e-01  2.570000e+00
TDG4  SN6r  1  3.650000e-01  2.570000e+00
TDG4  SN5r  1  3.650000e-01  2.340000e+00
TDG4  SN4r  1  3.650000e-01  2.110000e+00
TDG4  SN3r  1  3.650000e-01  1.910000e+00
TDG4  SN2r  1  3.650000e-01  1.910000e+00
TDG4  SN1r  1  3.650000e-01  1.910000e+00
TDG4  SC6r  1  3.650000e-01  1.750000e+00
TDG4  SC5r  1  3.660000e-01  1.600000e+00
TDG4  SC4r  1  3.780000e-01  1.450000e+00
TDG4  SC3r  1  3.940000e-01  1.290000e+00
TDG4  SC2r  1  3.940000e-01  1.290000e+00
TDG4  SC1r  1  4.040000e-01  1.130000e+00
TDG4  SX4r  1  3.650000e-01  1.750000e+00
TDG4  SX3r  1  3.650000e-01  1.750000e+00
TDG4  SX2r  1  3.660000e-01  1.600000e+00
TDG4  SX1r  1  3.780000e-01  1.450000e+00
P6a  TDG4  1  3.950000e-01  3.190000e+00
P5a  TDG4  1  3.950000e-01  2.940000e+00
P4a  TDG4  1  3.950000e-01  2.940000e+00
P3a  TDG4  1  3.950000e-01  2.940000e+00
P2a  TDG4  1  3.950000e-01  2.940000e+00
P6d  TDG4  1  3.950000e-01  3.670000e+00
P5d  TDG4  1  3.950000e-01  3.430000e+00
P4d  TDG4  1  3.950000e-01  3.430000e+00
P3d  TDG4  1  3.950000e-01  3.430000e+00
P2d  TDG4  1  3.950000e-01  3.430000e+00
P6q  TDG4  1  3.950000e-01  3.910000e+00
P5q  TDG4  1  3.950000e-01  3.670000e+00
P4q  TDG4  1  3.950000e-01  3.670000e+00
P3q  TDG4  1  3.950000e-01  3.670000e+00
P2q  TDG4  1  3.950000e-01  3.670000e+00
P6dq  TDG4  1  3.950000e-01  4.230000e+00
P5dq  TDG4  1  3.950000e-01  3.910000e+00
P4dq  TDG4  1  3.950000e-01  3.910000e+00
P3dq  TDG4  1  3.950000e-01  3.910000e+00
P2dq  TDG4  1  3.950000e-01  3.910000e+00
P6aq  TDG4  1  3.950000e-01  3.670000e+00
P5aq  TDG4  1  3.950000e-01  3.430000e+00
P4aq  TDG4  1  3.950000e-01  3.430000e+00
P3aq  TDG4  1  3.950000e-01  3.430000e+00
P6h  TDG4  1  3.950000e-01  3.430000e+00
P5h  TDG4  1  3.950000e-01  3.190000e+00
P4h  TDG4  1  3.950000e-01  3.190000e+00
P3h  TDG4  1  3.950000e-01  3.190000e+00
P2h  TDG4  1  3.950000e-01  3.190000e+00
P6dh  TDG4  1  3.950000e-01  3.670000e+00
P5dh  TDG4  1  3.950000e-01  3.430000e+00
P4dh  TDG4  1  3.950000e-01  3.430000e+00
P3dh  TDG4  1  3.950000e-01  3.430000e+00
P2dh  TDG4  1  3.950000e-01  3.430000e+00
P6ah  TDG4  1  3.950000e-01  3.190000e+00
P5ah  TDG4  1  3.950000e-01  2.940000e+00
P4ah  TDG4  1  3.950000e-01  2.940000e+00
P3ah  TDG4  1  3.950000e-01  2.940000e+00
P6r  TDG4  1  3.950000e-01  3.430000e+00
P5r  TDG4  1  3.950000e-01  3.190000e+00
P4r  TDG4  1  3.950000e-01  3.190000e+00
P3r  TDG4  1  3.950000e-01  3.190000e+00
P2r  TDG4  1  3.950000e-01  3.190000e+00
P6dr  TDG4  1  3.950000e-01  3.670000e+00
P5dr  TDG4  1  3.950000e-01  3.430000e+00
P4dr  TDG4  1  3.950000e-01  3.430000e+00
P3dr  TDG4  1  3.950000e-01  3.430000e+00
P2dr  TDG4  1  3.950000e-01  3.430000e+00
P6ar  TDG4  1  3.950000e-01  3.190000e+00
P5ar  TDG4  1  3.950000e-01  2.940000e+00
P4ar  TDG4  1  3.950000e-01  2.940000e+00
P3ar  TDG4  1  3.950000e-01  2.940000e+00
TDG4  P1a  1  3.950000e-01  2.700000e+00
TDG4  N6a  1  3.950000e-01  2.700000e+00
TDG4  N5a  1  3.950000e-01  2.500000e+00
TDG4  N4a  1  3.950000e-01  2.310000e+00
TDG4  N3a  1  3.950000e-01  2.110000e+00
TDG4  N2a  1  3.950000e-01  2.110000e+00
TDG4  N1a  1  3.950000e-01  2.110000e+00
TDG4  P1d  1  3.950000e-01  3.190000e+00
TDG4  N6d  1  3.950000e-01  3.190000e+00
TDG4  N5d  1  3.950000e-01  2.940000e+00
TDG4  N4d  1  3.950000e-01  2.700000e+00
TDG4  N3d  1  3.950000e-01  2.500000e+00
TDG4  N2d  1  3.950000e-01  2.500000e+00
TDG4  N1d  1  3.950000e-01  2.500000e+00
TDG4  C6v  1  3.950000e-01  2.310000e+00
TDG4  C5v  1  3.950000e-01  2.110000e+00
TDG4  C4v  1  3.950000e-01  1.850000e+00
TDG4  C3v  1  3.950000e-01  1.670000e+00
TDG4  C2v  1  3.950000e-01  1.670000e+00
TDG4  C1v  1  3.980000e-01  1.450000e+00
TDG4  X4v  1  3.950000e-01  2.310000e+00
TDG4  X3v  1  3.950000e-01  2.310000e+00
TDG4  X2v  1  3.950000e-01  2.110000e+00
TDG4  X1v  1  3.950000e-01  1.850000e+00
TDG4  C6e  1  3.950000e-01  1.850000e+00
TDG4  C5e  1  3.950000e-01  1.670000e+00
TDG4  C4e  1  3.980000e-01  1.450000e+00
TDG4  C3e  1  3.990000e-01  1.180000e+00
TDG4  C2e  1  3.990000e-01  1.180000e+00
TDG4  C1e  1  4.010000e-01  9.830000e-01
TDG4  X4e  1  3.950000e-01  1.850000e+00
TDG4  X3e  1  3.950000e-01  1.850000e+00
TDG4  X2e  1  3.950000e-01  1.670000e+00
TDG4  X1e  1  3.980000e-01  1.450000e+00
TDG4  P1q  1  3.950000e-01  3.430000e+00
TDG4  N6q  1  3.950000e-01  3.430000e+00
TDG4  N5q  1  3.950000e-01  3.190000e+00
TDG4  N4q  1  3.950000e-01  2.940000e+00
TDG4  N3q  1  3.950000e-01  2.700000e+00
TDG4  N2q  1  3.950000e-01  2.700000e+00
TDG4  N1q  1  3.950000e-01  2.700000e+00
TDG4  C6q  1  3.950000e-01  2.500000e+00
TDG4  C5q  1  3.950000e-01  2.310000e+00
TDG4  C4q  1  3.950000e-01  2.110000e+00
TDG4  C3q  1  3.950000e-01  1.850000e+00
TDG4  C2q  1  3.950000e-01  1.850000e+00
TDG4  C1q  1  3.950000e-01  1.670000e+00
TDG4  X4q  1  3.950000e-01  2.500000e+00
TDG4  X3q  1  3.950000e-01  2.500000e+00
TDG4  X2q  1  3.950000e-01  2.310000e+00
TDG4  X1q  1  3.950000e-01  2.110000e+00
TDG4  P1dq  1  3.950000e-01  3.670000e+00
TDG4  N6dq  1  3.950000e-01  3.670000e+00
TDG4  N5dq  1  3.950000e-01  3.430000e+00
TDG4  N4dq  1  3.950000e-01  3.190000e+00
TDG4  N3dq  1  3.950000e-01  2.940000e+00
TDG4  N2dq  1  3.950000e-01  2.940000e+00
TDG4  N1dq  1  3.950000e-01  2.940000e+00
TDG4  P2aq  1  3.950000e-01  3.430000e+00
TDG4  X1eq  1  3.950000e-01  1.850000e+00
TDG4  X2eq  1  3.950000e-01  2.110000e+00
TDG4  X3eq  1  3.950000e-01  2.310000e+00
TDG4  X4eq  1  3.950000e-01  2.310000e+00
TDG4  C1eq  1  3.980000e-01  1.450000e+00
TDG4  C2eq  1  3.950000e-01  1.670000e+00
TDG4  C3eq  1  3.950000e-01  1.670000e+00
TDG4  C4eq  1  3.950000e-01  1.850000e+00
TDG4  C5eq  1  3.950000e-01  2.110000e+00
TDG4  C6eq  1  3.950000e-01  2.310000e+00
TDG4  X1vq  1  3.950000e-01  2.310000e+00
TDG4  X2vq  1  3.950000e-01  2.500000e+00
TDG4  X3vq  1  3.950000e-01  2.700000e+00
TDG4  X4vq  1  3.950000e-01  2.700000e+00
TDG4  C1vq  1  3.950000e-01  1.850000e+00
TDG4  C2vq  1  3.950000e-01  2.110000e+00
TDG4  C3vq  1  3.950000e-01  2.110000e+00
TDG4  C4vq  1  3.950000e-01  2.310000e+00
TDG4  C5vq  1  3.950000e-01  2.500000e+00
TDG4  C6vq  1  3.950000e-01  2.700000e+00
TDG4  N1aq  1  3.950000e-01  2.500000e+00
TDG4  N2aq  1  3.950000e-01  2.500000e+00
TDG4  N3aq  1  3.950000e-01  2.500000e+00
TDG4  N4aq  1  3.950000e-01  2.700000e+00
TDG4  N5aq  1  3.950000e-01  2.940000e+00
TDG4  N6aq  1  3.950000e-01  3.190000e+00
TDG4  P1aq  1  3.950000e-01  3.190000e+00
TDG4  P1h  1  3.950000e-01  2.940000e+00
TDG4  N6h  1  3.950000e-01  2.940000e+00
TDG4  N5h  1  3.950000e-01  2.700000e+00
TDG4  N4h  1  3.950000e-01  2.500000e+00
TDG4  N3h  1  3.950000e-01  2.310000e+00
TDG4  N2h  1  3.950000e-01  2.310000e+00
TDG4  N1h  1  3.950000e-01  2.310000e+00
TDG4  C6h  1  3.950000e-01  2.110000e+00
TDG4  C5h  1  3.950000e-01  1.850000e+00
TDG4  C4h  1  3.950000e-01  1.670000e+00
TDG4  C3h  1  3.980000e-01  1.450000e+00
TDG4  C2h  1  3.980000e-01  1.450000e+00
TDG4  C1h  1  3.990000e-01  1.180000e+00
TDG4  X4h  1  3.950000e-01  2.110000e+00
TDG4  X3h  1  3.950000e-01  2.110000e+00
TDG4  X2h  1  3.950000e-01  1.850000e+00
TDG4  X1h  1  3.950000e-01  1.670000e+00
TDG4  P1dh  1  3.950000e-01  3.190000e+00
TDG4  N6dh  1  3.950000e-01  3.190000e+00
TDG4  N5dh  1  3.950000e-01  2.940000e+00
TDG4  N4dh  1  3.950000e-01  2.700000e+00
TDG4  N3dh  1  3.950000e-01  2.500000e+00
TDG4  N2dh  1  3.950000e-01  2.500000e+00
TDG4  N1dh  1  3.950000e-01  2.500000e+00
TDG4  P2ah  1  3.950000e-01  2.940000e+00
TDG4  X1eh  1  3.980000e-01  1.450000e+00
TDG4  X2eh  1  3.950000e-01  1.670000e+00
TDG4  X3eh  1  3.950000e-01  1.850000e+00
TDG4  X4eh  1  3.950000e-01  1.850000e+00
TDG4  C1eh  1  4.010000e-01  9.830000e-01
TDG4  C2eh  1  3.990000e-01  1.180000e+00
TDG4  C3eh  1  3.990000e-01  1.180000e+00
TDG4  C4eh  1  3.980000e-01  1.450000e+00
TDG4  C5eh  1  3.950000e-01  1.670000e+00
TDG4  C6eh  1  3.950000e-01  1.850000e+00
TDG4  X1vh  1  3.950000e-01  1.850000e+00
TDG4  X2vh  1  3.950000e-01  2.110000e+00
TDG4  X3vh  1  3.950000e-01  2.310000e+00
TDG4  X4vh  1  3.950000e-01  2.310000e+00
TDG4  C1vh  1  3.980000e-01  1.450000e+00
TDG4  C2vh  1  3.950000e-01  1.670000e+00
TDG4  C3vh  1  3.950000e-01  1.670000e+00
TDG4  C4vh  1  3.950000e-01  1.850000e+00
TDG4  C5vh  1  3.950000e-01  2.110000e+00
TDG4  C6vh  1  3.950000e-01  2.310000e+00
TDG4  N1ah  1  3.950000e-01  2.110000e+00
TDG4  N2ah  1  3.950000e-01  2.110000e+00
TDG4  N3ah  1  3.950000e-01  2.110000e+00
TDG4  N4ah  1  3.950000e-01  2.310000e+00
TDG4  N5ah  1  3.950000e-01  2.500000e+00
TDG4  N6ah  1  3.950000e-01  2.700000e+00
TDG4  P1ah  1  3.950000e-01  2.700000e+00
TDG4  P1r  1  3.950000e-01  2.940000e+00
TDG4  N6r  1  3.950000e-01  2.940000e+00
TDG4  N5r  1  3.950000e-01  2.700000e+00
TDG4  N4r  1  3.950000e-01  2.500000e+00
TDG4  N3r  1  3.950000e-01  2.310000e+00
TDG4  N2r  1  3.950000e-01  2.310000e+00
TDG4  N1r  1  3.950000e-01  2.310000e+00
TDG4  C6r  1  3.950000e-01  2.110000e+00
TDG4  C5r  1  3.950000e-01  1.850000e+00
TDG4  C4r  1  3.950000e-01  1.670000e+00
TDG4  C3r  1  3.980000e-01  1.450000e+00
TDG4  C2r  1  3.980000e-01  1.450000e+00
TDG4  C1r  1  3.990000e-01  1.180000e+00
TDG4  X4r  1  3.950000e-01  2.110000e+00
TDG4  X3r  1  3.950000e-01  2.110000e+00
TDG4  X2r  1  3.950000e-01  1.850000e+00
TDG4  X1r  1  3.950000e-01  1.670000e+00
TDG4  P1dr  1  3.950000e-01  3.190000e+00
TDG4  N6dr  1  3.950000e-01  3.190000e+00
TDG4  N5dr  1  3.950000e-01  2.940000e+00
TDG4  N4dr  1  3.950000e-01  2.700000e+00
TDG4  N3dr  1  3.950000e-01  2.500000e+00
TDG4  N2dr  1  3.950000e-01  2.500000e+00
TDG4  N1dr  1  3.950000e-01  2.500000e+00
TDG4  P2ar  1  3.950000e-01  2.940000e+00
TDG4  X1er  1  3.980000e-01  1.450000e+00
TDG4  X2er  1  3.950000e-01  1.670000e+00
TDG4  X3er  1  3.950000e-01  1.850000e+00
TDG4  X4er  1  3.950000e-01  1.850000e+00
TDG4  C1er  1  4.010000e-01  9.830000e-01
TDG4  C2er  1  3.990000e-01  1.180000e+00
TDG4  C3er  1  3.990000e-01  1.180000e+00
TDG4  C4er  1  3.980000e-01  1.450000e+00
TDG4  C5er  1  3.950000e-01  1.670000e+00
TDG4  C6er  1  3.950000e-01  1.850000e+00
TDG4  X1vr  1  3.950000e-01  1.850000e+00
TDG4  X2vr  1  3.950000e-01  2.110000e+00
TDG4  X3vr  1  3.950000e-01  2.310000e+00
TDG4  X4vr  1  3.950000e-01  2.310000e+00
TDG4  C1vr  1  3.980000e-01  1.450000e+00
TDG4  C2vr  1  3.950000e-01  1.670000e+00
TDG4  C3vr  1  3.950000e-01  1.670000e+00
TDG4  C4vr  1  3.950000e-01  1.850000e+00
TDG4  C5vr  1  3.950000e-01  2.110000e+00
TDG4  C6vr  1  3.950000e-01  2.310000e+00
TDG4  N1ar  1  3.950000e-01  2.110000e+00
TDG4  N2ar  1  3.950000e-01  2.110000e+00
TDG4  N3ar  1  3.950000e-01  2.110000e+00
TDG4  N4ar  1  3.950000e-01  2.310000e+00
TDG4  N5ar  1  3.950000e-01  2.500000e+00
TDG4  N6ar  1  3.950000e-01  2.700000e+00
TDG4  P1ar  1  3.950000e-01  2.700000e+00
TP6d  TDG4  1  3.400000e-01  3.470000e+00
TP5d  TDG4  1  3.400000e-01  3.220000e+00
TP4d  TDG4  1  3.400000e-01  3.220000e+00
TP3d  TDG4  1  3.400000e-01  3.220000e+00
TP2d  TDG4  1  3.400000e-01  3.220000e+00
TP6dq  TDG4  1  3.400000e-01  4.020000e+00
TP5dq  TDG4  1  3.400000e-01  3.750000e+00
TP4dq  TDG4  1  3.400000e-01  3.750000e+00
TP3dq  TDG4  1  3.400000e-01  3.750000e+00
TP2dq  TDG4  1  3.400000e-01  3.750000e+00
TP6dh  TDG4  1  3.400000e-01  3.470000e+00
TP5dh  TDG4  1  3.400000e-01  3.220000e+00
TP4dh  TDG4  1  3.400000e-01  3.220000e+00
TP3dh  TDG4  1  3.400000e-01  3.220000e+00
TP2dh  TDG4  1  3.400000e-01  3.220000e+00
TP6dr  TDG4  1  3.400000e-01  3.470000e+00
TP5dr  TDG4  1  3.400000e-01  3.220000e+00
TP4dr  TDG4  1  3.400000e-01  3.220000e+00
TP3dr  TDG4  1  3.400000e-01  3.220000e+00
TP2dr  TDG4  1  3.400000e-01  3.220000e+00
TDG4  TP1d  1  3.400000e-01  2.990000e+00
TDG4  TN6d  1  3.400000e-01  2.990000e+00
TDG4  TN5d  1  3.400000e-01  2.740000e+00
TDG4  TN4d  1  3.400000e-01  2.500000e+00
TDG4  TN3d  1  3.400000e-01  2.280000e+00
TDG4  TN2d  1  3.400000e-01  2.280000e+00
TDG4  TN1d  1  3.400000e-01  2.280000e+00
TDG4  TP1dq  1  3.400000e-01  3.470000e+00
TDG4  TN6dq  1  3.400000e-01  3.470000e+00
TDG4  TN5dq  1  3.400000e-01  3.220000e+00
TDG4  TN4dq  1  3.400000e-01  2.990000e+00
TDG4  TN3dq  1  3.400000e-01  2.740000e+00
TDG4  TN2dq  1  3.400000e-01  2.740000e+00
TDG4  TN1dq  1  3.400000e-01  2.740000e+00
TDG4  TP1dh  1  3.400000e-01  2.990000e+00
TDG4  TN6dh  1  3.400000e-01  2.990000e+00
TDG4  TN5dh  1  3.400000e-01  2.740000e+00
TDG4  TN4dh  1  3.400000e-01  2.500000e+00
TDG4  TN3dh  1  3.400000e-01  2.280000e+00
TDG4  TN2dh  1  3.400000e-01  2.280000e+00
TDG4  TN1dh  1  3.400000e-01  2.280000e+00
TDG4  TP1dr  1  3.400000e-01  2.990000e+00
TDG4  TN6dr  1  3.400000e-01  2.990000e+00
TDG4  TN5dr  1  3.400000e-01  2.740000e+00
TDG4  TN4dr  1  3.400000e-01  2.500000e+00
TDG4  TN3dr  1  3.400000e-01  2.280000e+00
TDG4  TN2dr  1  3.400000e-01  2.280000e+00
TDG4  TN1dr  1  3.400000e-01  2.280000e+00
TDG4  TC6v  1  3.400000e-01  1.510000e+00
TDG4  TC5v  1  3.400000e-01  1.230000e+00
TDG4  TC4v  1  3.520000e-01  1.050000e+00
TDG4  TC3v  1  3.660000e-01  9.350000e-01
TDG4  TC2v  1  3.660000e-01  9.350000e-01
TDG4  TC1v  1  3.850000e-01  8.550000e-01
TDG4  TX4v  1  3.400000e-01  1.510000e+00
TDG4  TX3v  1  3.400000e-01  1.510000e+00
TDG4  TX2v  1  3.400000e-01  1.230000e+00
TDG4  TX1v  1  3.520000e-01  1.050000e+00
TDG4  TX1vq  1  3.400000e-01  1.510000e+00
TDG4  TX2vq  1  3.400000e-01  1.770000e+00
TDG4  TX3vq  1  3.400000e-01  2.020000e+00
TDG4  TX4vq  1  3.400000e-01  2.020000e+00
TDG4  TC1vq  1  3.520000e-01  1.050000e+00
TDG4  TC2vq  1  3.400000e-01  1.230000e+00
TDG4  TC3vq  1  3.400000e-01  1.230000e+00
TDG4  TC4vq  1  3.400000e-01  1.510000e+00
TDG4  TC5vq  1  3.400000e-01  1.770000e+00
TDG4  TC6vq  1  3.400000e-01  2.020000e+00
TDG4  TX1vh  1  3.520000e-01  1.050000e+00
TDG4  TX2vh  1  3.400000e-01  1.230000e+00
TDG4  TX3vh  1  3.400000e-01  1.510000e+00
TDG4  TX4vh  1  3.400000e-01  1.510000e+00
TDG4  TC1vh  1  3.850000e-01  8.550000e-01
TDG4  TC2vh  1  3.660000e-01  9.350000e-01
TDG4  TC3vh  1  3.660000e-01  9.350000e-01
TDG4  TC4vh  1  3.520000e-01  1.050000e+00
TDG4  TC5vh  1  3.400000e-01  1.230000e+00
TDG4  TC6vh  1  3.400000e-01  1.510000e+00
TDG4  TX1vr  1  3.520000e-01  1.050000e+00
TDG4  TX2vr  1  3.400000e-01  1.230000e+00
TDG4  TX3vr  1  3.400000e-01  1.510000e+00
TDG4  TX4vr  1  3.400000e-01  1.510000e+00
TDG4  TC1vr  1  3.850000e-01  8.550000e-01
TDG4  TC2vr  1  3.660000e-01  9.350000e-01
TDG4  TC3vr  1  3.660000e-01  9.350000e-01
TDG4  TC4vr  1  3.520000e-01  1.050000e+00
TDG4  TC5vr  1  3.400000e-01  1.230000e+00
TDG4  TC6vr  1  3.400000e-01  1.510000e+00
TDG4  TC6e  1  3.520000e-01  1.050000e+00
TDG4  TC5e  1  3.660000e-01  9.350000e-01
TDG4  TC4e  1  3.850000e-01  8.550000e-01
TDG4  TC3e  1  4.110000e-01  8.010000e-01
TDG4  TC2e  1  4.110000e-01  8.010000e-01
TDG4  TC1e  1  4.240000e-01  7.760000e-01
TDG4  TX4e  1  3.520000e-01  1.050000e+00
TDG4  TX3e  1  3.520000e-01  1.050000e+00
TDG4  TX2e  1  3.660000e-01  9.350000e-01
TDG4  TX1e  1  3.850000e-01  8.550000e-01
TDG4  TX1eq  1  3.520000e-01  1.050000e+00
TDG4  TX2eq  1  3.400000e-01  1.230000e+00
TDG4  TX3eq  1  3.400000e-01  1.510000e+00
TDG4  TX4eq  1  3.400000e-01  1.510000e+00
TDG4  TC1eq  1  3.850000e-01  8.550000e-01
TDG4  TC2eq  1  3.660000e-01  9.350000e-01
TDG4  TC3eq  1  3.660000e-01  9.350000e-01
TDG4  TC4eq  1  3.520000e-01  1.050000e+00
TDG4  TC5eq  1  3.400000e-01  1.230000e+00
TDG4  TC6eq  1  3.400000e-01  1.510000e+00
TDG4  TX1eh  1  3.850000e-01  8.550000e-01
TDG4  TX2eh  1  3.660000e-01  9.350000e-01
TDG4  TX3eh  1  3.520000e-01  1.050000e+00
TDG4  TX4eh  1  3.520000e-01  1.050000e+00
TDG4  TC1eh  1  4.240000e-01  7.760000e-01
TDG4  TC2eh  1  4.110000e-01  8.010000e-01
TDG4  TC3eh  1  4.110000e-01  8.010000e-01
TDG4  TC4eh  1  3.850000e-01  8.550000e-01
TDG4  TC5eh  1  3.660000e-01  9.350000e-01
TDG4  TC6eh  1  3.520000e-01  1.050000e+00
TDG4  TX1er  1  3.850000e-01  8.550000e-01
TDG4  TX2er  1  3.660000e-01  9.350000e-01
TDG4  TX3er  1  3.520000e-01  1.050000e+00
TDG4  TX4er  1  3.520000e-01  1.050000e+00
TDG4  TC1er  1  4.240000e-01  7.760000e-01
TDG4  TC2er  1  4.110000e-01  8.010000e-01
TDG4  TC3er  1  4.110000e-01  8.010000e-01
TDG4  TC4er  1  3.850000e-01  8.550000e-01
TDG4  TC5er  1  3.660000e-01  9.350000e-01
TDG4  TC6er  1  3.520000e-01  1.050000e+00
TDG4  TP2aq  1  3.400000e-01  2.740000e+00
TDG4  TN1aq  1  3.400000e-01  1.770000e+00
TDG4  TN2aq  1  3.400000e-01  1.770000e+00
TDG4  TN3aq  1  3.400000e-01  1.770000e+00
TDG4  TN4aq  1  3.400000e-01  2.020000e+00
TDG4  TN5aq  1  3.400000e-01  2.280000e+00
TDG4  TN6aq  1  3.400000e-01  2.500000e+00
TDG4  TP1aq  1  3.400000e-01  2.500000e+00
TDG4  TP2ah  1  3.400000e-01  2.280000e+00
TDG4  TN1ah  1  3.400000e-01  1.230000e+00
TDG4  TN2ah  1  3.400000e-01  1.230000e+00
TDG4  TN3ah  1  3.400000e-01  1.230000e+00
TDG4  TN4ah  1  3.400000e-01  1.510000e+00
TDG4  TN5ah  1  3.400000e-01  1.770000e+00
TDG4  TN6ah  1  3.400000e-01  2.020000e+00
TDG4  TP1ah  1  3.400000e-01  2.020000e+00
TDG4  TP2ar  1  3.400000e-01  2.280000e+00
TDG4  TN1ar  1  3.400000e-01  1.230000e+00
TDG4  TN2ar  1  3.400000e-01  1.230000e+00
TDG4  TN3ar  1  3.400000e-01  1.230000e+00
TDG4  TN4ar  1  3.400000e-01  1.510000e+00
TDG4  TN5ar  1  3.400000e-01  1.770000e+00
TDG4  TN6ar  1  3.400000e-01  2.020000e+00
TDG4  TP1ar  1  3.400000e-01  2.020000e+00
TP6a  TDG4  1  3.400000e-01  2.500000e+00
TP5a  TDG4  1  3.400000e-01  2.280000e+00
TP4a  TDG4  1  3.400000e-01  2.280000e+00
TP3a  TDG4  1  3.400000e-01  2.280000e+00
TDG4  TP2a  1  3.400000e-01  2.280000e+00
TDG4  TP1a  1  3.400000e-01  2.020000e+00
TDG4  TN6a  1  3.400000e-01  2.020000e+00
TDG4  TN5a  1  3.400000e-01  1.770000e+00
TDG4  TN4a  1  3.400000e-01  1.510000e+00
TDG4  TN3a  1  3.400000e-01  1.230000e+00
TDG4  TN2a  1  3.400000e-01  1.230000e+00
TDG4  TN1a  1  3.400000e-01  1.230000e+00
TP6q  TDG4  1  3.400000e-01  3.220000e+00
TP5q  TDG4  1  3.400000e-01  2.990000e+00
TP4q  TDG4  1  3.400000e-01  2.990000e+00
TP3q  TDG4  1  3.400000e-01  2.990000e+00
TP2q  TDG4  1  3.400000e-01  2.990000e+00
TDG4  TP1q  1  3.400000e-01  2.740000e+00
TDG4  TN6q  1  3.400000e-01  2.740000e+00
TDG4  TN5q  1  3.400000e-01  2.500000e+00
TDG4  TN4q  1  3.400000e-01  2.280000e+00
TDG4  TN3q  1  3.400000e-01  2.020000e+00
TDG4  TN2q  1  3.400000e-01  2.020000e+00
TDG4  TN1q  1  3.400000e-01  2.020000e+00
TDG4  TC6q  1  3.400000e-01  1.770000e+00
TDG4  TC5q  1  3.400000e-01  1.510000e+00
TDG4  TC4q  1  3.400000e-01  1.230000e+00
TDG4  TC3q  1  3.520000e-01  1.050000e+00
TDG4  TC2q  1  3.520000e-01  1.050000e+00
TDG4  TC1q  1  3.660000e-01  9.350000e-01
TDG4  TX4q  1  3.400000e-01  1.770000e+00
TDG4  TX3q  1  3.400000e-01  1.770000e+00
TDG4  TX2q  1  3.400000e-01  1.510000e+00
TDG4  TX1q  1  3.400000e-01  1.230000e+00
TP6h  TDG4  1  3.400000e-01  2.740000e+00
TP5h  TDG4  1  3.400000e-01  2.500000e+00
TP4h  TDG4  1  3.400000e-01  2.500000e+00
TP3h  TDG4  1  3.400000e-01  2.500000e+00
TP2h  TDG4  1  3.400000e-01  2.500000e+00
TDG4  TP1h  1  3.400000e-01  2.280000e+00
TDG4  TN6h  1  3.400000e-01  2.280000e+00
TDG4  TN5h  1  3.400000e-01  2.020000e+00
TDG4  TN4h  1  3.400000e-01  1.770000e+00
TDG4  TN3h  1  3.400000e-01  1.510000e+00
TDG4  TN2h  1  3.400000e-01  1.510000e+00
TDG4  TN1h  1  3.400000e-01  1.510000e+00
TDG4  TC6h  1  3.400000e-01  1.230000e+00
TDG4  TC5h  1  3.520000e-01  1.050000e+00
TDG4  TC4h  1  3.660000e-01  9.350000e-01
TDG4  TC3h  1  3.850000e-01  8.550000e-01
TDG4  TC2h  1  3.850000e-01  8.550000e-01
TDG4  TC1h  1  4.110000e-01  8.010000e-01
TDG4  TX4h  1  3.400000e-01  1.230000e+00
TDG4  TX3h  1  3.400000e-01  1.230000e+00
TDG4  TX2h  1  3.520000e-01  1.050000e+00
TDG4  TX1h  1  3.660000e-01  9.350000e-01
TP6r  TDG4  1  3.400000e-01  2.740000e+00
TP5r  TDG4  1  3.400000e-01  2.500000e+00
TP4r  TDG4  1  3.400000e-01  2.500000e+00
TP3r  TDG4  1  3.400000e-01  2.500000e+00
TP2r  TDG4  1  3.400000e-01  2.500000e+00
TDG4  TP1r  1  3.400000e-01  2.280000e+00
TDG4  TN6r  1  3.400000e-01  2.280000e+00
TDG4  TN5r  1  3.400000e-01  2.020000e+00
TDG4  TN4r  1  3.400000e-01  1.770000e+00
TDG4  TN3r  1  3.400000e-01  1.510000e+00
TDG4  TN2r  1  3.400000e-01  1.510000e+00
TDG4  TN1r  1  3.400000e-01  1.510000e+00
TDG4  TC6r  1  3.400000e-01  1.230000e+00
TDG4  TC5r  1  3.520000e-01  1.050000e+00
TDG4  TC4r  1  3.660000e-01  9.350000e-01
TDG4  TC3r  1  3.850000e-01  8.550000e-01
TDG4  TC2r  1  3.850000e-01  8.550000e-01
TDG4  TC1r  1  4.110000e-01  8.010000e-01
TDG4  TX4r  1  3.400000e-01  1.230000e+00
TDG4  TX3r  1  3.400000e-01  1.230000e+00
TDG4  TX2r  1  3.520000e-01  1.050000e+00
TDG4  TX1r  1  3.660000e-01  9.350000e-01
TP6aq  TDG4  1  3.400000e-01  2.990000e+00
TP5aq  TDG4  1  3.400000e-01  2.740000e+00
TP4aq  TDG4  1  3.400000e-01  2.740000e+00
TP3aq  TDG4  1  3.400000e-01  2.740000e+00
TP6ah  TDG4  1  3.400000e-01  2.500000e+00
TP5ah  TDG4  1  3.400000e-01  2.280000e+00
TP4ah  TDG4  1  3.400000e-01  2.280000e+00
TP3ah  TDG4  1  3.400000e-01  2.280000e+00
TP6ar  TDG4  1  3.400000e-01  2.500000e+00
TP5ar  TDG4  1  3.400000e-01  2.280000e+00
TP4ar  TDG4  1  3.400000e-01  2.280000e+00
TP3ar  TDG4  1  3.400000e-01  2.280000e+00
W  TDG4  1  3.850000e-01  3.420000e+00
SW  TDG4  1  3.750000e-01  2.720000e+00
TW  TDG4  1  3.450000e-01  2.600000e+00
TDG4  D  1  3.950000e-01  4.852000e+00
TDG4  SD  1  3.650000e-01  1.090600e+01
TDG4  TD  1  3.400000e-01  1.279400e+01
TDG4  Q5  1  3.950000e-01  4.272000e+00
TDG4  SQ5  1  3.650000e-01  5.627000e+00
TDG4  TQ5  1  3.400000e-01  7.592000e+00
TDG4  Q5p  1  3.950000e-01  4.902000e+00
TDG4  SQ5p  1  3.650000e-01  6.207000e+00
TDG4  TQ5p  1  3.400000e-01  8.392000e+00
TDG4  Q5n  1  3.950000e-01  4.032000e+00
TDG4  SQ5n  1  3.650000e-01  5.357000e+00
TDG4  TQ5n  1  3.400000e-01  7.362000e+00
TDG4  Q4  1  3.950000e-01  4.037000e+00
TDG4  SQ4  1  3.650000e-01  5.386000e+00
TDG4  TQ4  1  3.400000e-01  7.425000e+00
TDG4  Q4p  1  3.950000e-01  4.597000e+00
TDG4  SQ4p  1  3.650000e-01  5.946000e+00
TDG4  TQ4p  1  3.400000e-01  8.185000e+00
TDG4  Q4n  1  3.950000e-01  3.797000e+00
TDG4  SQ4n  1  3.650000e-01  5.116000e+00
TDG4  TQ4n  1  3.400000e-01  7.175000e+00
TDG4  Q3  1  3.950000e-01  3.815000e+00
TDG4  SQ3  1  3.650000e-01  5.213000e+00
TDG4  TQ3  1  3.400000e-01  7.389000e+00
TDG4  Q3p  1  3.950000e-01  4.295000e+00
TDG4  SQ3p  1  3.650000e-01  5.753000e+00
TDG4  TQ3p  1  3.400000e-01  8.119000e+00
TDG4  Q3n  1  3.950000e-01  3.575000e+00
TDG4  SQ3n  1  3.650000e-01  4.943000e+00
TDG4  TQ3n  1  3.400000e-01  7.149000e+00
TDG4  Q2  1  3.950000e-01  3.826000e+00
TDG4  SQ2  1  3.650000e-01  5.274000e+00
TDG4  TQ2  1  3.400000e-01  7.522000e+00
TDG4  Q2p  1  3.950000e-01  4.306000e+00
TDG4  SQ2p  1  3.650000e-01  5.814000e+00
TDG4  TQ2p  1  3.400000e-01  8.252000e+00
TDG4  Q2n  1  3.950000e-01  3.586000e+00
TDG4  SQ2n  1  3.650000e-01  5.004000e+00
TDG4  TQ2n  1  3.400000e-01  7.282000e+00
TDG4  Q1  1  3.950000e-01  3.831000e+00
TDG4  SQ1  1  3.650000e-01  5.300000e+00
TDG4  TQ1  1  3.400000e-01  7.580000e+00
TDG4  Q1p  1  3.950000e-01  4.311000e+00
TDG4  SQ1p  1  3.650000e-01  5.840000e+00
TDG4  TQ1p  1  3.400000e-01  8.310000e+00
TDG4  Q1n  1  3.950000e-01  3.591000e+00
TDG4  SQ1n  1  3.650000e-01  5.030000e+00
TDG4  TQ1n  1  3.400000e-01  7.340000e+00
P6  TDG5  1  3.950000e-01  1.670000e+00
SP6  TDG5  1  3.780000e-01  1.450000e+00
TP6  TDG5  1  3.660000e-01  9.350000e-01
P5  TDG5  1  3.950000e-01  1.670000e+00
SP5  TDG5  1  3.780000e-01  1.450000e+00
TP5  TDG5  1  3.660000e-01  9.350000e-01
P4  TDG5  1  3.950000e-01  1.850000e+00
SP4  TDG5  1  3.660000e-01  1.600000e+00
TP4  TDG5  1  3.520000e-01  1.050000e+00
P3  TDG5  1  3.950000e-01  2.110000e+00
SP3  TDG5  1  3.650000e-01  1.750000e+00
TP3  TDG5  1  3.400000e-01  1.230000e+00
P2  TDG5  1  3.950000e-01  2.310000e+00
SP2  TDG5  1  3.650000e-01  1.910000e+00
TP2  TDG5  1  3.400000e-01  1.510000e+00
P1  TDG5  1  3.950000e-01  2.310000e+00
SP1  TDG5  1  3.650000e-01  1.910000e+00
TP1  TDG5  1  3.400000e-01  1.510000e+00
N6  TDG5  1  3.950000e-01  2.310000e+00
SN6  TDG5  1  3.650000e-01  1.910000e+00
TN6  TDG5  1  3.400000e-01  1.510000e+00
N5  TDG5  1  3.950000e-01  2.310000e+00
SN5  TDG5  1  3.650000e-01  1.910000e+00
TN5  TDG5  1  3.400000e-01  1.510000e+00
N4  TDG5  1  3.950000e-01  2.310000e+00
SN4  TDG5  1  3.650000e-01  1.910000e+00
TN4  TDG5  1  3.400000e-01  1.510000e+00
N3  TDG5  1  3.950000e-01  2.310000e+00
SN3  TDG5  1  3.650000e-01  1.910000e+00
TN3  TDG5  1  3.400000e-01  1.510000e+00
N2  TDG5  1  3.950000e-01  2.310000e+00
SN2  TDG5  1  3.650000e-01  1.910000e+00
TN2  TDG5  1  3.400000e-01  1.510000e+00
N1  TDG5  1  3.950000e-01  2.500000e+00
SN1  TDG5  1  3.650000e-01  2.110000e+00
TN1  TDG5  1  3.400000e-01  1.770000e+00
TDG5  C6  1  3.950000e-01  2.500000e+00
TDG5  SC6  1  3.650000e-01  2.110000e+00
TDG5  TC6  1  3.400000e-01  1.770000e+00
TDG5  C5  1  3.950000e-01  2.310000e+00
TDG5  SC5  1  3.650000e-01  1.910000e+00
TDG5  TC5  1  3.400000e-01  1.510000e+00
TDG5  C4  1  3.950000e-01  2.310000e+00
TDG5  SC4  1  3.650000e-01  1.910000e+00
TDG5  TC4  1  3.400000e-01  1.510000e+00
TDG5  C3  1  3.950000e-01  2.110000e+00
TDG5  SC3  1  3.650000e-01  1.750000e+00
TDG5  TC3  1  3.400000e-01  1.230000e+00
TDG5  C2  1  3.950000e-01  1.850000e+00
TDG5  SC2  1  3.660000e-01  1.600000e+00
TDG5  TC2  1  3.520000e-01  1.050000e+00
TDG5  C1  1  3.950000e-01  1.670000e+00
TDG5  SC1  1  3.780000e-01  1.450000e+00
TDG5  TC1  1  3.660000e-01  9.350000e-01
TDG5  X4  1  3.950000e-01  2.310000e+00
TDG5  SX4  1  3.650000e-01  1.910000e+00
TDG5  TX4  1  3.400000e-01  1.510000e+00
TDG5  X3  1  3.950000e-01  2.310000e+00
TDG5  SX3  1  3.650000e-01  1.910000e+00
TDG5  TX3  1  3.400000e-01  1.510000e+00
TDG5  X2  1  3.950000e-01  2.110000e+00
TDG5  SX2  1  3.650000e-01  1.750000e+00
TDG5  TX2  1  3.400000e-01  1.230000e+00
TDG5  X1  1  3.950000e-01  2.110000e+00
TDG5  SX1  1  3.650000e-01  1.750000e+00
TDG5  TX1  1  3.400000e-01  1.230000e+00
SP6a  TDG5  1  3.780000e-01  1.450000e+00
SP5a  TDG5  1  3.780000e-01  1.450000e+00
SP4a  TDG5  1  3.660000e-01  1.600000e+00
SP3a  TDG5  1  3.650000e-01  1.750000e+00
SP2a  TDG5  1  3.650000e-01  1.750000e+00
SP1a  TDG5  1  3.650000e-01  1.750000e+00
SN6a  TDG5  1  3.650000e-01  1.750000e+00
SN5a  TDG5  1  3.650000e-01  1.750000e+00
SN4a  TDG5  1  3.650000e-01  1.750000e+00
SN3a  TDG5  1  3.650000e-01  1.750000e+00
SN2a  TDG5  1  3.650000e-01  1.750000e+00
SN1a  TDG5  1  3.650000e-01  1.910000e+00
SP6d  TDG5  1  3.780000e-01  1.450000e+00
SP5d  TDG5  1  3.780000e-01  1.450000e+00
SP4d  TDG5  1  3.660000e-01  1.600000e+00
SP3d  TDG5  1  3.650000e-01  1.750000e+00
SP2d  TDG5  1  3.650000e-01  2.110000e+00
SP1d  TDG5  1  3.650000e-01  2.110000e+00
SN6d  TDG5  1  3.650000e-01  2.110000e+00
SN5d  TDG5  1  3.650000e-01  2.110000e+00
SN4d  TDG5  1  3.650000e-01  2.110000e+00
SN3d  TDG5  1  3.650000e-01  2.110000e+00
SN2d  TDG5  1  3.650000e-01  2.110000e+00
SN1d  TDG5  1  3.650000e-01  2.340000e+00
SP6q  TDG5  1  3.650000e-01  1.750000e+00
SP5q  TDG5  1  3.650000e-01  1.750000e+00
SP4q  TDG5  1  3.650000e-01  1.910000e+00
SP3q  TDG5  1  3.650000e-01  2.110000e+00
SP2q  TDG5  1  3.650000e-01  2.340000e+00
SP1q  TDG5  1  3.650000e-01  2.340000e+00
SN6q  TDG5  1  3.650000e-01  2.340000e+00
SN5q  TDG5  1  3.650000e-01  2.340000e+00
SN4q  TDG5  1  3.650000e-01  2.340000e+00
SN3q  TDG5  1  3.650000e-01  2.340000e+00
SN2q  TDG5  1  3.650000e-01  2.340000e+00
SN1q  TDG5  1  3.650000e-01  2.570000e+00
SP6h  TDG5  1  3.780000e-01  1.450000e+00
SP5h  TDG5  1  3.780000e-01  1.450000e+00
SP4h  TDG5  1  3.660000e-01  1.600000e+00
SP3h  TDG5  1  3.650000e-01  1.750000e+00
SP2h  TDG5  1  3.650000e-01  1.910000e+00
SP1h  TDG5  1  3.650000e-01  1.910000e+00
SN6h  TDG5  1  3.650000e-01  1.910000e+00
SN5h  TDG5  1  3.650000e-01  1.910000e+00
SN4h  TDG5  1  3.650000e-01  1.910000e+00
SN3h  TDG5  1  3.650000e-01  1.910000e+00
SN2h  TDG5  1  3.650000e-01  1.910000e+00
SN1h  TDG5  1  3.650000e-01  2.110000e+00
SP6r  TDG5  1  3.780000e-01  1.450000e+00
SP5r  TDG5  1  3.780000e-01  1.450000e+00
SP4r  TDG5  1  3.660000e-01  1.600000e+00
SP3r  TDG5  1  3.650000e-01  1.750000e+00
SP2r  TDG5  1  3.650000e-01  1.910000e+00
SP1r  TDG5  1  3.650000e-01  1.910000e+00
SN6r  TDG5  1  3.650000e-01  1.910000e+00
SN5r  TDG5  1  3.650000e-01  1.910000e+00
SN4r  TDG5  1  3.650000e-01  1.910000e+00
SN3r  TDG5  1  3.650000e-01  1.910000e+00
SN2r  TDG5  1  3.650000e-01  1.910000e+00
SN1r  TDG5  1  3.650000e-01  2.110000e+00
SP6dq  TDG5  1  3.650000e-01  1.750000e+00
SP5dq  TDG5  1  3.650000e-01  1.750000e+00
SP4dq  TDG5  1  3.650000e-01  1.910000e+00
SP3dq  TDG5  1  3.650000e-01  2.110000e+00
SP2dq  TDG5  1  3.650000e-01  2.570000e+00
SP1dq  TDG5  1  3.650000e-01  2.570000e+00
SN6dq  TDG5  1  3.650000e-01  2.570000e+00
SN5dq  TDG5  1  3.650000e-01  2.570000e+00
SN4dq  TDG5  1  3.650000e-01  2.570000e+00
SN3dq  TDG5  1  3.650000e-01  2.570000e+00
SN2dq  TDG5  1  3.650000e-01  2.570000e+00
SN1dq  TDG5  1  3.650000e-01  2.830000e+00
SP6aq  TDG5  1  3.650000e-01  1.750000e+00
SP5aq  TDG5  1  3.650000e-01  1.750000e+00
SP4aq  TDG5  1  3.650000e-01  1.910000e+00
SP3aq  TDG5  1  3.650000e-01  2.110000e+00
SP2aq  TDG5  1  3.650000e-01  2.110000e+00
SP1aq  TDG5  1  3.650000e-01  2.110000e+00
SN6aq  TDG5  1  3.650000e-01  2.110000e+00
SN5aq  TDG5  1  3.650000e-01  2.110000e+00
SN4aq  TDG5  1  3.650000e-01  2.110000e+00
SN3aq  TDG5  1  3.650000e-01  2.110000e+00
SN2aq  TDG5  1  3.650000e-01  2.110000e+00
SP6dh  TDG5  1  3.780000e-01  1.450000e+00
SP5dh  TDG5  1  3.780000e-01  1.450000e+00
SP4dh  TDG5  1  3.660000e-01  1.600000e+00
SP3dh  TDG5  1  3.650000e-01  1.750000e+00
SP2dh  TDG5  1  3.650000e-01  2.110000e+00
SP1dh  TDG5  1  3.650000e-01  2.110000e+00
SN6dh  TDG5  1  3.650000e-01  2.110000e+00
SN5dh  TDG5  1  3.650000e-01  2.110000e+00
SN4dh  TDG5  1  3.650000e-01  2.110000e+00
SN3dh  TDG5  1  3.650000e-01  2.110000e+00
SN2dh  TDG5  1  3.650000e-01  2.110000e+00
SN1dh  TDG5  1  3.650000e-01  2.340000e+00
SP6ah  TDG5  1  3.780000e-01  1.450000e+00
SP5ah  TDG5  1  3.780000e-01  1.450000e+00
SP4ah  TDG5  1  3.660000e-01  1.600000e+00
SP3ah  TDG5  1  3.650000e-01  1.750000e+00
SP2ah  TDG5  1  3.650000e-01  1.750000e+00
SP1ah  TDG5  1  3.650000e-01  1.750000e+00
SN6ah  TDG5  1  3.650000e-01  1.750000e+00
SN5ah  TDG5  1  3.650000e-01  1.750000e+00
SN4ah  TDG5  1  3.650000e-01  1.750000e+00
SN3ah  TDG5  1  3.650000e-01  1.750000e+00
SN2ah  TDG5  1  3.650000e-01  1.750000e+00
SP6dr  TDG5  1  3.780000e-01  1.450000e+00
SP5dr  TDG5  1  3.780000e-01  1.450000e+00
SP4dr  TDG5  1  3.660000e-01  1.600000e+00
SP3dr  TDG5  1  3.650000e-01  1.750000e+00
SP2dr  TDG5  1  3.650000e-01  2.110000e+00
SP1dr  TDG5  1  3.650000e-01  2.110000e+00
SN6dr  TDG5  1  3.650000e-01  2.110000e+00
SN5dr  TDG5  1  3.650000e-01  2.110000e+00
SN4dr  TDG5  1  3.650000e-01  2.110000e+00
SN3dr  TDG5  1  3.650000e-01  2.110000e+00
SN2dr  TDG5  1  3.650000e-01  2.110000e+00
SN1dr  TDG5  1  3.650000e-01  2.340000e+00
SP6ar  TDG5  1  3.780000e-01  1.450000e+00
SP5ar  TDG5  1  3.780000e-01  1.450000e+00
SP4ar  TDG5  1  3.660000e-01  1.600000e+00
SP3ar  TDG5  1  3.650000e-01  1.750000e+00
SP2ar  TDG5  1  3.650000e-01  1.750000e+00
SP1ar  TDG5  1  3.650000e-01  1.750000e+00
SN6ar  TDG5  1  3.650000e-01  1.750000e+00
SN5ar  TDG5  1  3.650000e-01  1.750000e+00
SN4ar  TDG5  1  3.650000e-01  1.750000e+00
SN3ar  TDG5  1  3.650000e-01  1.750000e+00
SN2ar  TDG5  1  3.650000e-01  1.750000e+00
TDG5  SN1aq  1  3.650000e-01  2.340000e+00
TDG5  SX1eq  1  3.650000e-01  1.910000e+00
TDG5  SX2eq  1  3.650000e-01  1.910000e+00
TDG5  SX3eq  1  3.650000e-01  2.110000e+00
TDG5  SX4eq  1  3.650000e-01  2.110000e+00
TDG5  SC1eq  1  3.660000e-01  1.600000e+00
TDG5  SC2eq  1  3.650000e-01  1.750000e+00
TDG5  SC3eq  1  3.650000e-01  1.910000e+00
TDG5  SC4eq  1  3.650000e-01  2.110000e+00
TDG5  SC5eq  1  3.650000e-01  2.110000e+00
TDG5  SC6eq  1  3.650000e-01  2.340000e+00
TDG5  SX1vq  1  3.650000e-01  2.340000e+00
TDG5  SX2vq  1  3.650000e-01  2.340000e+00
TDG5  SX3vq  1  3.650000e-01  2.570000e+00
TDG5  SX4vq  1  3.650000e-01  2.570000e+00
TDG5  SC1vq  1  3.650000e-01  1.910000e+00
TDG5  SC2vq  1  3.650000e-01  2.110000e+00
TDG5  SC3vq  1  3.650000e-01  2.340000e+00
TDG5  SC4vq  1  3.650000e-01  2.570000e+00
TDG5  SC5vq  1  3.650000e-01  2.570000e+00
TDG5  SC6vq  1  3.650000e-01  2.830000e+00
TDG5  SN1ah  1  3.650000e-01  1.910000e+00
TDG5  SX1eh  1  3.660000e-01  1.600000e+00
TDG5  SX2eh  1  3.660000e-01  1.600000e+00
TDG5  SX3eh  1  3.650000e-01  1.750000e+00
TDG5  SX4eh  1  3.650000e-01  1.750000e+00
TDG5  SC1eh  1  3.940000e-01  1.290000e+00
TDG5  SC2eh  1  3.780000e-01  1.450000e+00
TDG5  SC3eh  1  3.660000e-01  1.600000e+00
TDG5  SC4eh  1  3.650000e-01  1.750000e+00
TDG5  SC5eh  1  3.650000e-01  1.750000e+00
TDG5  SC6eh  1  3.650000e-01  1.910000e+00
TDG5  SX1vh  1  3.650000e-01  1.910000e+00
TDG5  SX2vh  1  3.650000e-01  1.910000e+00
TDG5  SX3vh  1  3.650000e-01  2.110000e+00
TDG5  SX4vh  1  3.650000e-01  2.110000e+00
TDG5  SC1vh  1  3.660000e-01  1.600000e+00
TDG5  SC2vh  1  3.650000e-01  1.750000e+00
TDG5  SC3vh  1  3.650000e-01  1.910000e+00
TDG5  SC4vh  1  3.650000e-01  2.110000e+00
TDG5  SC5vh  1  3.650000e-01  2.110000e+00
TDG5  SC6vh  1  3.650000e-01  2.340000e+00
TDG5  SN1ar  1  3.650000e-01  1.910000e+00
TDG5  SX1er  1  3.660000e-01  1.600000e+00
TDG5  SX2er  1  3.660000e-01  1.600000e+00
TDG5  SX3er  1  3.650000e-01  1.750000e+00
TDG5  SX4er  1  3.650000e-01  1.750000e+00
TDG5  SC1er  1  3.940000e-01  1.290000e+00
TDG5  SC2er  1  3.780000e-01  1.450000e+00
TDG5  SC3er  1  3.660000e-01  1.600000e+00
TDG5  SC4er  1  3.650000e-01  1.750000e+00
TDG5  SC5er  1  3.650000e-01  1.750000e+00
TDG5  SC6er  1  3.650000e-01  1.910000e+00
TDG5  SX1vr  1  3.650000e-01  1.910000e+00
TDG5  SX2vr  1  3.650000e-01  1.910000e+00
TDG5  SX3vr  1  3.650000e-01  2.110000e+00
TDG5  SX4vr  1  3.650000e-01  2.110000e+00
TDG5  SC1vr  1  3.660000e-01  1.600000e+00
TDG5  SC2vr  1  3.650000e-01  1.750000e+00
TDG5  SC3vr  1  3.650000e-01  1.910000e+00
TDG5  SC4vr  1  3.650000e-01  2.110000e+00
TDG5  SC5vr  1  3.650000e-01  2.110000e+00
TDG5  SC6vr  1  3.650000e-01  2.340000e+00
TDG5  SC6v  1  3.650000e-01  2.340000e+00
TDG5  SC5v  1  3.650000e-01  2.110000e+00
TDG5  SC4v  1  3.650000e-01  2.110000e+00
TDG5  SC3v  1  3.650000e-01  1.910000e+00
TDG5  SC2v  1  3.650000e-01  1.750000e+00
TDG5  SC1v  1  3.660000e-01  1.600000e+00
TDG5  SX4v  1  3.650000e-01  2.110000e+00
TDG5  SX3v  1  3.650000e-01  2.110000e+00
TDG5  SX2v  1  3.650000e-01  1.910000e+00
TDG5  SX1v  1  3.650000e-01  1.910000e+00
TDG5  SC6e  1  3.650000e-01  1.910000e+00
TDG5  SC5e  1  3.650000e-01  1.750000e+00
TDG5  SC4e  1  3.650000e-01  1.750000e+00
TDG5  SC3e  1  3.660000e-01  1.600000e+00
TDG5  SC2e  1  3.780000e-01  1.450000e+00
TDG5  SC1e  1  3.940000e-01  1.290000e+00
TDG5  SX4e  1  3.650000e-01  1.750000e+00
TDG5  SX3e  1  3.650000e-01  1.750000e+00
TDG5  SX2e  1  3.660000e-01  1.600000e+00
TDG5  SX1e  1  3.660000e-01  1.600000e+00
TDG5  SC6q  1  3.650000e-01  2.570000e+00
TDG5  SC5q  1  3.650000e-01  2.340000e+00
TDG5  SC4q  1  3.650000e-01  2.340000e+00
TDG5  SC3q  1  3.650000e-01  2.110000e+00
TDG5  SC2q  1  3.650000e-01  1.910000e+00
TDG5  SC1q  1  3.650000e-01  1.750000e+00
TDG5  SX4q  1  3.650000e-01  2.340000e+00
TDG5  SX3q  1  3.650000e-01  2.340000e+00
TDG5  SX2q  1  3.650000e-01  2.110000e+00
TDG5  SX1q  1  3.650000e-01  2.110000e+00
TDG5  SC6h  1  3.650000e-01  2.110000e+00
TDG5  SC5h  1  3.650000e-01  1.910000e+00
TDG5  SC4h  1  3.650000e-01  1.910000e+00
TDG5  SC3h  1  3.650000e-01  1.750000e+00
TDG5  SC2h  1  3.660000e-01  1.600000e+00
TDG5  SC1h  1  3.780000e-01  1.450000e+00
TDG5  SX4h  1  3.650000e-01  1.910000e+00
TDG5  SX3h  1  3.650000e-01  1.910000e+00
TDG5  SX2h  1  3.650000e-01  1.750000e+00
TDG5  SX1h  1  3.650000e-01  1.750000e+00
TDG5  SC6r  1  3.650000e-01  2.110000e+00
TDG5  SC5r  1  3.650000e-01  1.910000e+00
TDG5  SC4r  1  3.650000e-01  1.910000e+00
TDG5  SC3r  1  3.650000e-01  1.750000e+00
TDG5  SC2r  1  3.660000e-01  1.600000e+00
TDG5  SC1r  1  3.780000e-01  1.450000e+00
TDG5  SX4r  1  3.650000e-01  1.910000e+00
TDG5  SX3r  1  3.650000e-01  1.910000e+00
TDG5  SX2r  1  3.650000e-01  1.750000e+00
TDG5  SX1r  1  3.650000e-01  1.750000e+00
P6a  TDG5  1  3.950000e-01  1.670000e+00
P5a  TDG5  1  3.950000e-01  1.670000e+00
P4a  TDG5  1  3.950000e-01  1.850000e+00
P3a  TDG5  1  3.950000e-01  2.110000e+00
P2a  TDG5  1  3.950000e-01  2.110000e+00
P1a  TDG5  1  3.950000e-01  2.110000e+00
N6a  TDG5  1  3.950000e-01  2.110000e+00
N5a  TDG5  1  3.950000e-01  2.110000e+00
N4a  TDG5  1  3.950000e-01  2.110000e+00
N3a  TDG5  1  3.950000e-01  2.110000e+00
N2a  TDG5  1  3.950000e-01  2.110000e+00
N1a  TDG5  1  3.950000e-01  2.310000e+00
P6d  TDG5  1  3.950000e-01  1.670000e+00
P5d  TDG5  1  3.950000e-01  1.670000e+00
P4d  TDG5  1  3.950000e-01  1.850000e+00
P3d  TDG5  1  3.950000e-01  2.110000e+00
P2d  TDG5  1  3.950000e-01  2.500000e+00
P1d  TDG5  1  3.950000e-01  2.500000e+00
N6d  TDG5  1  3.950000e-01  2.500000e+00
N5d  TDG5  1  3.950000e-01  2.500000e+00
N4d  TDG5  1  3.950000e-01  2.500000e+00
N3d  TDG5  1  3.950000e-01  2.500000e+00
N2d  TDG5  1  3.950000e-01  2.500000e+00
N1d  TDG5  1  3.950000e-01  2.700000e+00
P6q  TDG5  1  3.950000e-01  2.110000e+00
P5q  TDG5  1  3.950000e-01  2.110000e+00
P4q  TDG5  1  3.950000e-01  2.310000e+00
P3q  TDG5  1  3.950000e-01  2.500000e+00
P2q  TDG5  1  3.950000e-01  2.700000e+00
P1q  TDG5  1  3.950000e-01  2.700000e+00
N6q  TDG5  1  3.950000e-01  2.700000e+00
N5q  TDG5  1  3.950000e-01  2.700000e+00
N4q  TDG5  1  3.950000e-01  2.700000e+00
N3q  TDG5  1  3.950000e-01  2.700000e+00
N2q  TDG5  1  3.950000e-01  2.700000e+00
N1q  TDG5  1  3.950000e-01  2.940000e+00
P6dq  TDG5  1  3.950000e-01  2.110000e+00
P5dq  TDG5  1  3.950000e-01  2.110000e+00
P4dq  TDG5  1  3.950000e-01  2.310000e+00
P3dq  TDG5  1  3.950000e-01  2.500000e+00
P2dq  TDG5  1  3.950000e-01  2.940000e+00
P1dq  TDG5  1  3.950000e-01  2.940000e+00
N6dq  TDG5  1  3.950000e-01  2.940000e+00
N5dq  TDG5  1  3.950000e-01  2.940000e+00
N4dq  TDG5  1  3.950000e-01  2.940000e+00
N3dq  TDG5  1  3.950000e-01  2.940000e+00
N2dq  TDG5  1  3.950000e-01  2.940000e+00
N1dq  TDG5  1  3.950000e-01  3.190000e+00
P6aq  TDG5  1  3.950000e-01  2.110000e+00
P5aq  TDG5  1  3.950000e-01  2.110000e+00
P4aq  TDG5  1  3.950000e-01  2.310000e+00
P3aq  TDG5  1  3.950000e-01  2.500000e+00
P2aq  TDG5  1  3.950000e-01  2.500000e+00
P1aq  TDG5  1  3.950000e-01  2.500000e+00
N6aq  TDG5  1  3.950000e-01  2.500000e+00
N5aq  TDG5  1  3.950000e-01  2.500000e+00
N4aq  TDG5  1  3.950000e-01  2.500000e+00
N3aq  TDG5  1  3.950000e-01  2.500000e+00
N2aq  TDG5  1  3.950000e-01  2.500000e+00
P6h  TDG5  1  3.950000e-01  1.670000e+00
P5h  TDG5  1  3.950000e-01  1.670000e+00
P4h  TDG5  1  3.950000e-01  1.850000e+00
P3h  TDG5  1  3.950000e-01  2.110000e+00
P2h  TDG5  1  3.950000e-01  2.310000e+00
P1h  TDG5  1  3.950000e-01  2.310000e+00
N6h  TDG5  1  3.950000e-01  2.310000e+00
N5h  TDG5  1  3.950000e-01  2.310000e+00
N4h  TDG5  1  3.950000e-01  2.310000e+00
N3h  TDG5  1  3.950000e-01  2.310000e+00
N2h  TDG5  1  3.950000e-01  2.310000e+00
N1h  TDG5  1  3.950000e-01  2.500000e+00
P6dh  TDG5  1  3.950000e-01  1.670000e+00
P5dh  TDG5  1  3.950000e-01  1.670000e+00
P4dh  TDG5  1  3.950000e-01  1.850000e+00
P3dh  TDG5  1  3.950000e-01  2.110000e+00
P2dh  TDG5  1  3.950000e-01  2.500000e+00
P1dh  TDG5  1  3.950000e-01  2.500000e+00
N6dh  TDG5  1  3.950000e-01  2.500000e+00
N5dh  TDG5  1  3.950000e-01  2.500000e+00
N4dh  TDG5  1  3.950000e-01  2.500000e+00
N3dh  TDG5  1  3.950000e-01  2.500000e+00
N2dh  TDG5  1  3.950000e-01  2.500000e+00
N1dh  TDG5  1  3.950000e-01  2.700000e+00
P6ah  TDG5  1  3.950000e-01  1.670000e+00
P5ah  TDG5  1  3.950000e-01  1.670000e+00
P4ah  TDG5  1  3.950000e-01  1.850000e+00
P3ah  TDG5  1  3.950000e-01  2.110000e+00
P2ah  TDG5  1  3.950000e-01  2.110000e+00
P1ah  TDG5  1  3.950000e-01  2.110000e+00
N6ah  TDG5  1  3.950000e-01  2.110000e+00
N5ah  TDG5  1  3.950000e-01  2.110000e+00
N4ah  TDG5  1  3.950000e-01  2.110000e+00
N3ah  TDG5  1  3.950000e-01  2.110000e+00
N2ah  TDG5  1  3.950000e-01  2.110000e+00
P6r  TDG5  1  3.950000e-01  1.670000e+00
P5r  TDG5  1  3.950000e-01  1.670000e+00
P4r  TDG5  1  3.950000e-01  1.850000e+00
P3r  TDG5  1  3.950000e-01  2.110000e+00
P2r  TDG5  1  3.950000e-01  2.310000e+00
P1r  TDG5  1  3.950000e-01  2.310000e+00
N6r  TDG5  1  3.950000e-01  2.310000e+00
N5r  TDG5  1  3.950000e-01  2.310000e+00
N4r  TDG5  1  3.950000e-01  2.310000e+00
N3r  TDG5  1  3.950000e-01  2.310000e+00
N2r  TDG5  1  3.950000e-01  2.310000e+00
N1r  TDG5  1  3.950000e-01  2.500000e+00
P6dr  TDG5  1  3.950000e-01  1.670000e+00
P5dr  TDG5  1  3.950000e-01  1.670000e+00
P4dr  TDG5  1  3.950000e-01  1.850000e+00
P3dr  TDG5  1  3.950000e-01  2.110000e+00
P2dr  TDG5  1  3.950000e-01  2.500000e+00
P1dr  TDG5  1  3.950000e-01  2.500000e+00
N6dr  TDG5  1  3.950000e-01  2.500000e+00
N5dr  TDG5  1  3.950000e-01  2.500000e+00
N4dr  TDG5  1  3.950000e-01  2.500000e+00
N3dr  TDG5  1  3.950000e-01  2.500000e+00
N2dr  TDG5  1  3.950000e-01  2.500000e+00
N1dr  TDG5  1  3.950000e-01  2.700000e+00
P6ar  TDG5  1  3.950000e-01  1.670000e+00
P5ar  TDG5  1  3.950000e-01  1.670000e+00
P4ar  TDG5  1  3.950000e-01  1.850000e+00
P3ar  TDG5  1  3.950000e-01  2.110000e+00
P2ar  TDG5  1  3.950000e-01  2.110000e+00
P1ar  TDG5  1  3.950000e-01  2.110000e+00
N6ar  TDG5  1  3.950000e-01  2.110000e+00
N5ar  TDG5  1  3.950000e-01  2.110000e+00
N4ar  TDG5  1  3.950000e-01  2.110000e+00
N3ar  TDG5  1  3.950000e-01  2.110000e+00
N2ar  TDG5  1  3.950000e-01  2.110000e+00
TDG5  C6v  1  3.950000e-01  2.700000e+00
TDG5  C5v  1  3.950000e-01  2.500000e+00
TDG5  C4v  1  3.950000e-01  2.500000e+00
TDG5  C3v  1  3.950000e-01  2.310000e+00
TDG5  C2v  1  3.950000e-01  2.110000e+00
TDG5  C1v  1  3.950000e-01  1.850000e+00
TDG5  X4v  1  3.950000e-01  2.500000e+00
TDG5  X3v  1  3.950000e-01  2.500000e+00
TDG5  X2v  1  3.950000e-01  2.310000e+00
TDG5  X1v  1  3.950000e-01  2.310000e+00
TDG5  C6e  1  3.950000e-01  2.310000e+00
TDG5  C5e  1  3.950000e-01  2.110000e+00
TDG5  C4e  1  3.950000e-01  2.110000e+00
TDG5  C3e  1  3.950000e-01  1.850000e+00
TDG5  C2e  1  3.950000e-01  1.670000e+00
TDG5  C1e  1  3.980000e-01  1.450000e+00
TDG5  X4e  1  3.950000e-01  2.110000e+00
TDG5  X3e  1  3.950000e-01  2.110000e+00
TDG5  X2e  1  3.950000e-01  1.850000e+00
TDG5  X1e  1  3.950000e-01  1.850000e+00
TDG5  C6q  1  3.950000e-01  2.940000e+00
TDG5  C5q  1  3.950000e-01  2.700000e+00
TDG5  C4q  1  3.950000e-01  2.700000e+00
TDG5  C3q  1  3.950000e-01  2.500000e+00
TDG5  C2q  1  3.950000e-01  2.310000e+00
TDG5  C1q  1  3.950000e-01  2.110000e+00
TDG5  X4q  1  3.950000e-01  2.700000e+00
TDG5  X3q  1  3.950000e-01  2.700000e+00
TDG5  X2q  1  3.950000e-01  2.500000e+00
TDG5  X1q  1  3.950000e-01  2.500000e+00
TDG5  N1aq  1  3.950000e-01  2.700000e+00
TDG5  X1eq  1  3.950000e-01  2.310000e+00
TDG5  X2eq  1  3.950000e-01  2.310000e+00
TDG5  X3eq  1  3.950000e-01  2.500000e+00
TDG5  X4eq  1  3.950000e-01  2.500000e+00
TDG5  C1eq  1  3.950000e-01  1.850000e+00
TDG5  C2eq  1  3.950000e-01  2.110000e+00
TDG5  C3eq  1  3.950000e-01  2.310000e+00
TDG5  C4eq  1  3.950000e-01  2.500000e+00
TDG5  C5eq  1  3.950000e-01  2.500000e+00
TDG5  C6eq  1  3.950000e-01  2.700000e+00
TDG5  X1vq  1  3.950000e-01  2.700000e+00
TDG5  X2vq  1  3.950000e-01  2.700000e+00
TDG5  X3vq  1  3.950000e-01  2.940000e+00
TDG5  X4vq  1  3.950000e-01  2.940000e+00
TDG5  C1vq  1  3.950000e-01  2.310000e+00
TDG5  C2vq  1  3.950000e-01  2.500000e+00
TDG5  C3vq  1  3.950000e-01  2.700000e+00
TDG5  C4vq  1  3.950000e-01  2.940000e+00
TDG5  C5vq  1  3.950000e-01  2.940000e+00
TDG5  C6vq  1  3.950000e-01  3.190000e+00
TDG5  C6h  1  3.950000e-01  2.500000e+00
TDG5  C5h  1  3.950000e-01  2.310000e+00
TDG5  C4h  1  3.950000e-01  2.310000e+00
TDG5  C3h  1  3.950000e-01  2.110000e+00
TDG5  C2h  1  3.950000e-01  1.850000e+00
TDG5  C1h  1  3.950000e-01  1.670000e+00
TDG5  X4h  1  3.950000e-01  2.310000e+00
TDG5  X3h  1  3.950000e-01  2.310000e+00
TDG5  X2h  1  3.950000e-01  2.110000e+00
TDG5  X1h  1  3.950000e-01  2.110000e+00
TDG5  N1ah  1  3.950000e-01  2.310000e+00
TDG5  X1eh  1  3.950000e-01  1.850000e+00
TDG5  X2eh  1  3.950000e-01  1.850000e+00
TDG5  X3eh  1  3.950000e-01  2.110000e+00
TDG5  X4eh  1  3.950000e-01  2.110000e+00
TDG5  C1eh  1  3.980000e-01  1.450000e+00
TDG5  C2eh  1  3.950000e-01  1.670000e+00
TDG5  C3eh  1  3.950000e-01  1.850000e+00
TDG5  C4eh  1  3.950000e-01  2.110000e+00
TDG5  C5eh  1  3.950000e-01  2.110000e+00
TDG5  C6eh  1  3.950000e-01  2.310000e+00
TDG5  X1vh  1  3.950000e-01  2.310000e+00
TDG5  X2vh  1  3.950000e-01  2.310000e+00
TDG5  X3vh  1  3.950000e-01  2.500000e+00
TDG5  X4vh  1  3.950000e-01  2.500000e+00
TDG5  C1vh  1  3.950000e-01  1.850000e+00
TDG5  C2vh  1  3.950000e-01  2.110000e+00
TDG5  C3vh  1  3.950000e-01  2.310000e+00
TDG5  C4vh  1  3.950000e-01  2.500000e+00
TDG5  C5vh  1  3.950000e-01  2.500000e+00
TDG5  C6vh  1  3.950000e-01  2.700000e+00
TDG5  C6r  1  3.950000e-01  2.500000e+00
TDG5  C5r  1  3.950000e-01  2.310000e+00
TDG5  C4r  1  3.950000e-01  2.310000e+00
TDG5  C3r  1  3.950000e-01  2.110000e+00
TDG5  C2r  1  3.950000e-01  1.850000e+00
TDG5  C1r  1  3.950000e-01  1.670000e+00
TDG5  X4r  1  3.950000e-01  2.310000e+00
TDG5  X3r  1  3.950000e-01  2.310000e+00
TDG5  X2r  1  3.950000e-01  2.110000e+00
TDG5  X1r  1  3.950000e-01  2.110000e+00
TDG5  N1ar  1  3.950000e-01  2.310000e+00
TDG5  X1er  1  3.950000e-01  1.850000e+00
TDG5  X2er  1  3.950000e-01  1.850000e+00
TDG5  X3er  1  3.950000e-01  2.110000e+00
TDG5  X4er  1  3.950000e-01  2.110000e+00
TDG5  C1er  1  3.980000e-01  1.450000e+00
TDG5  C2er  1  3.950000e-01  1.670000e+00
TDG5  C3er  1  3.950000e-01  1.850000e+00
TDG5  C4er  1  3.950000e-01  2.110000e+00
TDG5  C5er  1  3.950000e-01  2.110000e+00
TDG5  C6er  1  3.950000e-01  2.310000e+00
TDG5  X1vr  1  3.950000e-01  2.310000e+00
TDG5  X2vr  1  3.950000e-01  2.310000e+00
TDG5  X3vr  1  3.950000e-01  2.500000e+00
TDG5  X4vr  1  3.950000e-01  2.500000e+00
TDG5  C1vr  1  3.950000e-01  1.850000e+00
TDG5  C2vr  1  3.950000e-01  2.110000e+00
TDG5  C3vr  1  3.950000e-01  2.310000e+00
TDG5  C4vr  1  3.950000e-01  2.500000e+00
TDG5  C5vr  1  3.950000e-01  2.500000e+00
TDG5  C6vr  1  3.950000e-01  2.700000e+00
TP6d  TDG5  1  3.660000e-01  9.350000e-01
TP5d  TDG5  1  3.660000e-01  9.350000e-01
TP4d  TDG5  1  3.520000e-01  1.050000e+00
TP3d  TDG5  1  3.400000e-01  1.230000e+00
TP2d  TDG5  1  3.400000e-01  2.280000e+00
TP1d  TDG5  1  3.400000e-01  2.280000e+00
TN6d  TDG5  1  3.400000e-01  2.280000e+00
TN5d  TDG5  1  3.400000e-01  2.280000e+00
TN4d  TDG5  1  3.400000e-01  2.280000e+00
TN3d  TDG5  1  3.400000e-01  2.280000e+00
TN2d  TDG5  1  3.400000e-01  2.280000e+00
TN1d  TDG5  1  3.400000e-01  2.500000e+00
TP6dq  TDG5  1  3.400000e-01  1.230000e+00
TP5dq  TDG5  1  3.400000e-01  1.230000e+00
TP4dq  TDG5  1  3.400000e-01  2.020000e+00
TP3dq  TDG5  1  3.400000e-01  2.280000e+00
TP2dq  TDG5  1  3.400000e-01  2.740000e+00
TP1dq  TDG5  1  3.400000e-01  2.740000e+00
TN6dq  TDG5  1  3.400000e-01  2.740000e+00
TN5dq  TDG5  1  3.400000e-01  2.740000e+00
TN4dq  TDG5  1  3.400000e-01  2.740000e+00
TN3dq  TDG5  1  3.400000e-01  2.740000e+00
TN2dq  TDG5  1  3.400000e-01  2.740000e+00
TN1dq  TDG5  1  3.400000e-01  2.990000e+00
TP6dh  TDG5  1  3.660000e-01  9.350000e-01
TP5dh  TDG5  1  3.660000e-01  9.350000e-01
TP4dh  TDG5  1  3.520000e-01  1.050000e+00
TP3dh  TDG5  1  3.400000e-01  1.230000e+00
TP2dh  TDG5  1  3.400000e-01  2.280000e+00
TP1dh  TDG5  1  3.400000e-01  2.280000e+00
TN6dh  TDG5  1  3.400000e-01  2.280000e+00
TN5dh  TDG5  1  3.400000e-01  2.280000e+00
TN4dh  TDG5  1  3.400000e-01  2.280000e+00
TN3dh  TDG5  1  3.400000e-01  2.280000e+00
TN2dh  TDG5  1  3.400000e-01  2.280000e+00
TN1dh  TDG5  1  3.400000e-01  2.500000e+00
TP6dr  TDG5  1  3.660000e-01  9.350000e-01
TP5dr  TDG5  1  3.660000e-01  9.350000e-01
TP4dr  TDG5  1  3.520000e-01  1.050000e+00
TP3dr  TDG5  1  3.400000e-01  1.230000e+00
TP2dr  TDG5  1  3.400000e-01  2.280000e+00
TP1dr  TDG5  1  3.400000e-01  2.280000e+00
TN6dr  TDG5  1  3.400000e-01  2.280000e+00
TN5dr  TDG5  1  3.400000e-01  2.280000e+00
TN4dr  TDG5  1  3.400000e-01  2.280000e+00
TN3dr  TDG5  1  3.400000e-01  2.280000e+00
TN2dr  TDG5  1  3.400000e-01  2.280000e+00
TN1dr  TDG5  1  3.400000e-01  2.500000e+00
TDG5  TC6v  1  3.400000e-01  2.020000e+00
TDG5  TC5v  1  3.400000e-01  1.770000e+00
TDG5  TC4v  1  3.400000e-01  1.770000e+00
TDG5  TC3v  1  3.400000e-01  1.510000e+00
TDG5  TC2v  1  3.400000e-01  1.230000e+00
TDG5  TC1v  1  3.520000e-01  1.050000e+00
TDG5  TX4v  1  3.400000e-01  1.770000e+00
TDG5  TX3v  1  3.400000e-01  1.770000e+00
TDG5  TX2v  1  3.400000e-01  1.510000e+00
TDG5  TX1v  1  3.400000e-01  1.510000e+00
TDG5  TX1vq  1  3.400000e-01  2.020000e+00
TDG5  TX2vq  1  3.400000e-01  2.020000e+00
TDG5  TX3vq  1  3.400000e-01  2.280000e+00
TDG5  TX4vq  1  3.400000e-01  2.280000e+00
TDG5  TC1vq  1  3.400000e-01  1.510000e+00
TDG5  TC2vq  1  3.400000e-01  1.770000e+00
TDG5  TC3vq  1  3.400000e-01  2.020000e+00
TDG5  TC4vq  1  3.400000e-01  2.280000e+00
TDG5  TC5vq  1  3.400000e-01  2.280000e+00
TDG5  TC6vq  1  3.400000e-01  2.500000e+00
TDG5  TX1vh  1  3.400000e-01  1.510000e+00
TDG5  TX2vh  1  3.400000e-01  1.510000e+00
TDG5  TX3vh  1  3.400000e-01  1.770000e+00
TDG5  TX4vh  1  3.400000e-01  1.770000e+00
TDG5  TC1vh  1  3.520000e-01  1.050000e+00
TDG5  TC2vh  1  3.400000e-01  1.230000e+00
TDG5  TC3vh  1  3.400000e-01  1.510000e+00
TDG5  TC4vh  1  3.400000e-01  1.770000e+00
TDG5  TC5vh  1  3.400000e-01  1.770000e+00
TDG5  TC6vh  1  3.400000e-01  2.020000e+00
TDG5  TX1vr  1  3.400000e-01  1.510000e+00
TDG5  TX2vr  1  3.400000e-01  1.510000e+00
TDG5  TX3vr  1  3.400000e-01  1.770000e+00
TDG5  TX4vr  1  3.400000e-01  1.770000e+00
TDG5  TC1vr  1  3.520000e-01  1.050000e+00
TDG5  TC2vr  1  3.400000e-01  1.230000e+00
TDG5  TC3vr  1  3.400000e-01  1.510000e+00
TDG5  TC4vr  1  3.400000e-01  1.770000e+00
TDG5  TC5vr  1  3.400000e-01  1.770000e+00
TDG5  TC6vr  1  3.400000e-01  2.020000e+00
TDG5  TC6e  1  3.400000e-01  1.510000e+00
TDG5  TC5e  1  3.400000e-01  1.230000e+00
TDG5  TC4e  1  3.400000e-01  1.230000e+00
TDG5  TC3e  1  3.520000e-01  1.050000e+00
TDG5  TC2e  1  3.660000e-01  9.350000e-01
TDG5  TC1e  1  3.850000e-01  8.550000e-01
TDG5  TX4e  1  3.400000e-01  1.230000e+00
TDG5  TX3e  1  3.400000e-01  1.230000e+00
TDG5  TX2e  1  3.520000e-01  1.050000e+00
TDG5  TX1e  1  3.520000e-01  1.050000e+00
TDG5  TX1eq  1  3.400000e-01  1.510000e+00
TDG5  TX2eq  1  3.400000e-01  1.510000e+00
TDG5  TX3eq  1  3.400000e-01  1.770000e+00
TDG5  TX4eq  1  3.400000e-01  1.770000e+00
TDG5  TC1eq  1  3.520000e-01  1.050000e+00
TDG5  TC2eq  1  3.400000e-01  1.230000e+00
TDG5  TC3eq  1  3.400000e-01  1.510000e+00
TDG5  TC4eq  1  3.400000e-01  1.770000e+00
TDG5  TC5eq  1  3.400000e-01  1.770000e+00
TDG5  TC6eq  1  3.400000e-01  2.020000e+00
TDG5  TX1eh  1  3.520000e-01  1.050000e+00
TDG5  TX2eh  1  3.520000e-01  1.050000e+00
TDG5  TX3eh  1  3.400000e-01  1.230000e+00
TDG5  TX4eh  1  3.400000e-01  1.230000e+00
TDG5  TC1eh  1  3.850000e-01  8.550000e-01
TDG5  TC2eh  1  3.660000e-01  9.350000e-01
TDG5  TC3eh  1  3.520000e-01  1.050000e+00
TDG5  TC4eh  1  3.400000e-01  1.230000e+00
TDG5  TC5eh  1  3.400000e-01  1.230000e+00
TDG5  TC6eh  1  3.400000e-01  1.510000e+00
TDG5  TX1er  1  3.520000e-01  1.050000e+00
TDG5  TX2er  1  3.520000e-01  1.050000e+00
TDG5  TX3er  1  3.400000e-01  1.230000e+00
TDG5  TX4er  1  3.400000e-01  1.230000e+00
TDG5  TC1er  1  3.850000e-01  8.550000e-01
TDG5  TC2er  1  3.660000e-01  9.350000e-01
TDG5  TC3er  1  3.520000e-01  1.050000e+00
TDG5  TC4er  1  3.400000e-01  1.230000e+00
TDG5  TC5er  1  3.400000e-01  1.230000e+00
TDG5  TC6er  1  3.400000e-01  1.510000e+00
TDG5  TN1aq  1  3.400000e-01  2.020000e+00
TDG5  TN1ah  1  3.400000e-01  1.510000e+00
TDG5  TN1ar  1  3.400000e-01  1.510000e+00
TP6a  TDG5  1  3.660000e-01  9.350000e-01
TP5a  TDG5  1  3.660000e-01  9.350000e-01
TP4a  TDG5  1  3.520000e-01  1.050000e+00
TP3a  TDG5  1  3.400000e-01  1.230000e+00
TP2a  TDG5  1  3.400000e-01  1.230000e+00
TP1a  TDG5  1  3.400000e-01  1.230000e+00
TN6a  TDG5  1  3.400000e-01  1.230000e+00
TN5a  TDG5  1  3.400000e-01  1.230000e+00
TN4a  TDG5  1  3.400000e-01  1.230000e+00
TN3a  TDG5  1  3.400000e-01  1.230000e+00
TN2a  TDG5  1  3.400000e-01  1.230000e+00
TDG5  TN1a  1  3.400000e-01  1.510000e+00
TP6q  TDG5  1  3.400000e-01  1.230000e+00
TP5q  TDG5  1  3.400000e-01  1.230000e+00
TP4q  TDG5  1  3.400000e-01  1.510000e+00
TP3q  TDG5  1  3.400000e-01  1.770000e+00
TP2q  TDG5  1  3.400000e-01  2.020000e+00
TP1q  TDG5  1  3.400000e-01  2.020000e+00
TN6q  TDG5  1  3.400000e-01  2.020000e+00
TN5q  TDG5  1  3.400000e-01  2.020000e+00
TN4q  TDG5  1  3.400000e-01  2.020000e+00
TN3q  TDG5  1  3.400000e-01  2.020000e+00
TN2q  TDG5  1  3.400000e-01  2.020000e+00
TN1q  TDG5  1  3.400000e-01  2.280000e+00
TDG5  TC6q  1  3.400000e-01  2.280000e+00
TDG5  TC5q  1  3.400000e-01  2.020000e+00
TDG5  TC4q  1  3.400000e-01  2.020000e+00
TDG5  TC3q  1  3.400000e-01  1.770000e+00
TDG5  TC2q  1  3.400000e-01  1.510000e+00
TDG5  TC1q  1  3.400000e-01  1.230000e+00
TDG5  TX4q  1  3.400000e-01  2.020000e+00
TDG5  TX3q  1  3.400000e-01  2.020000e+00
TDG5  TX2q  1  3.400000e-01  1.770000e+00
TDG5  TX1q  1  3.400000e-01  1.770000e+00
TP6h  TDG5  1  3.660000e-01  9.350000e-01
TP5h  TDG5  1  3.660000e-01  9.350000e-01
TP4h  TDG5  1  3.520000e-01  1.050000e+00
TP3h  TDG5  1  3.400000e-01  1.230000e+00
TP2h  TDG5  1  3.400000e-01  1.510000e+00
TP1h  TDG5  1  3.400000e-01  1.510000e+00
TN6h  TDG5  1  3.400000e-01  1.510000e+00
TN5h  TDG5  1  3.400000e-01  1.510000e+00
TN4h  TDG5  1  3.400000e-01  1.510000e+00
TN3h  TDG5  1  3.400000e-01  1.510000e+00
TN2h  TDG5  1  3.400000e-01  1.510000e+00
TN1h  TDG5  1  3.400000e-01  1.770000e+00
TDG5  TC6h  1  3.400000e-01  1.770000e+00
TDG5  TC5h  1  3.400000e-01  1.510000e+00
TDG5  TC4h  1  3.400000e-01  1.510000e+00
TDG5  TC3h  1  3.400000e-01  1.230000e+00
TDG5  TC2h  1  3.520000e-01  1.050000e+00
TDG5  TC1h  1  3.660000e-01  9.350000e-01
TDG5  TX4h  1  3.400000e-01  1.510000e+00
TDG5  TX3h  1  3.400000e-01  1.510000e+00
TDG5  TX2h  1  3.400000e-01  1.230000e+00
TDG5  TX1h  1  3.400000e-01  1.230000e+00
TP6r  TDG5  1  3.660000e-01  9.350000e-01
TP5r  TDG5  1  3.660000e-01  9.350000e-01
TP4r  TDG5  1  3.520000e-01  1.050000e+00
TP3r  TDG5  1  3.400000e-01  1.230000e+00
TP2r  TDG5  1  3.400000e-01  1.510000e+00
TP1r  TDG5  1  3.400000e-01  1.510000e+00
TN6r  TDG5  1  3.400000e-01  1.510000e+00
TN5r  TDG5  1  3.400000e-01  1.510000e+00
TN4r  TDG5  1  3.400000e-01  1.510000e+00
TN3r  TDG5  1  3.400000e-01  1.510000e+00
TN2r  TDG5  1  3.400000e-01  1.510000e+00
TN1r  TDG5  1  3.400000e-01  1.770000e+00
TDG5  TC6r  1  3.400000e-01  1.770000e+00
TDG5  TC5r  1  3.400000e-01  1.510000e+00
TDG5  TC4r  1  3.400000e-01  1.510000e+00
TDG5  TC3r  1  3.400000e-01  1.230000e+00
TDG5  TC2r  1  3.520000e-01  1.050000e+00
TDG5  TC1r  1  3.660000e-01  9.350000e-01
TDG5  TX4r  1  3.400000e-01  1.510000e+00
TDG5  TX3r  1  3.400000e-01  1.510000e+00
TDG5  TX2r  1  3.400000e-01  1.230000e+00
TDG5  TX1r  1  3.400000e-01  1.230000e+00
TP6aq  TDG5  1  3.400000e-01  1.230000e+00
TP5aq  TDG5  1  3.400000e-01  1.230000e+00
TP4aq  TDG5  1  3.400000e-01  1.510000e+00
TP3aq  TDG5  1  3.400000e-01  1.770000e+00
TP2aq  TDG5  1  3.400000e-01  1.770000e+00
TP1aq  TDG5  1  3.400000e-01  1.770000e+00
TN6aq  TDG5  1  3.400000e-01  1.770000e+00
TN5aq  TDG5  1  3.400000e-01  1.770000e+00
TN4aq  TDG5  1  3.400000e-01  1.770000e+00
TN3aq  TDG5  1  3.400000e-01  1.770000e+00
TN2aq  TDG5  1  3.400000e-01  1.770000e+00
TP6ah  TDG5  1  3.660000e-01  9.350000e-01
TP5ah  TDG5  1  3.660000e-01  9.350000e-01
TP4ah  TDG5  1  3.520000e-01  1.050000e+00
TP3ah  TDG5  1  3.400000e-01  1.230000e+00
TP2ah  TDG5  1  3.400000e-01  1.230000e+00
TP1ah  TDG5  1  3.400000e-01  1.230000e+00
TN6ah  TDG5  1  3.400000e-01  1.230000e+00
TN5ah  TDG5  1  3.400000e-01  1.230000e+00
TN4ah  TDG5  1  3.400000e-01  1.230000e+00
TN3ah  TDG5  1  3.400000e-01  1.230000e+00
TN2ah  TDG5  1  3.400000e-01  1.230000e+00
TP6ar  TDG5  1  3.660000e-01  9.350000e-01
TP5ar  TDG5  1  3.660000e-01  9.350000e-01
TP4ar  TDG5  1  3.520000e-01  1.050000e+00
TP3ar  TDG5  1  3.400000e-01  1.230000e+00
TP2ar  TDG5  1  3.400000e-01  1.230000e+00
TP1ar  TDG5  1  3.400000e-01  1.230000e+00
TN6ar  TDG5  1  3.400000e-01  1.230000e+00
TN5ar  TDG5  1  3.400000e-01  1.230000e+00
TN4ar  TDG5  1  3.400000e-01  1.230000e+00
TN3ar  TDG5  1  3.400000e-01  1.230000e+00
TN2ar  TDG5  1  3.400000e-01  1.230000e+00
W  TDG5  1  3.850000e-01  1.550000e+00
SW  TDG5  1  3.750000e-01  1.130000e+00
TW  TDG5  1  3.530000e-01  1.330000e+00
TDG5  D  1  3.950000e-01  2.580000e+00
TDG5  SD  1  3.650000e-01  7.023000e+00
TDG5  TD  1  3.400000e-01  8.279000e+00
TDG5  Q5  1  3.950000e-01  3.232000e+00
TDG5  SQ5  1  3.650000e-01  4.174000e+00
TDG5  TQ5  1  3.400000e-01  5.810000e+00
TDG5  Q5p  1  3.950000e-01  3.722000e+00
TDG5  SQ5p  1  3.650000e-01  4.704000e+00
TDG5  TQ5p  1  3.400000e-01  6.520000e+00
TDG5  Q5n  1  3.950000e-01  2.992000e+00
TDG5  SQ5n  1  3.650000e-01  3.944000e+00
TDG5  TQ5n  1  3.400000e-01  5.550000e+00
TDG5  Q4  1  3.950000e-01  3.250000e+00
TDG5  SQ4  1  3.650000e-01  4.271000e+00
TDG5  TQ4  1  3.400000e-01  6.022000e+00
TDG5  Q4p  1  3.950000e-01  3.740000e+00
TDG5  SQ4p  1  3.650000e-01  4.801000e+00
TDG5  TQ4p  1  3.400000e-01  6.732000e+00
TDG5  Q4n  1  3.950000e-01  3.010000e+00
TDG5  SQ4n  1  3.650000e-01  4.041000e+00
TDG5  TQ4n  1  3.400000e-01  5.762000e+00
TDG5  Q3  1  3.950000e-01  3.282000e+00
TDG5  SQ3  1  3.650000e-01  4.448000e+00
TDG5  TQ3  1  3.400000e-01  6.411000e+00
TDG5  Q3p  1  3.950000e-01  3.772000e+00
TDG5  SQ3p  1  3.650000e-01  4.978000e+00
TDG5  TQ3p  1  3.400000e-01  7.121000e+00
TDG5  Q3n  1  3.950000e-01  3.042000e+00
TDG5  SQ3n  1  3.650000e-01  4.218000e+00
TDG5  TQ3n  1  3.400000e-01  6.151000e+00
TDG5  Q2  1  3.950000e-01  3.306000e+00
TDG5  SQ2  1  3.650000e-01  4.576000e+00
TDG5  TQ2  1  3.400000e-01  6.694000e+00
TDG5  Q2p  1  3.950000e-01  3.796000e+00
TDG5  SQ2p  1  3.650000e-01  5.106000e+00
TDG5  TQ2p  1  3.400000e-01  7.404000e+00
TDG5  Q2n  1  3.950000e-01  3.066000e+00
TDG5  SQ2n  1  3.650000e-01  4.346000e+00
TDG5  TQ2n  1  3.400000e-01  6.434000e+00
TDG5  Q1  1  3.950000e-01  3.086000e+00
TDG5  SQ1  1  3.650000e-01  4.458000e+00
TDG5  TQ1  1  3.400000e-01  6.679000e+00
TDG5  Q1p  1  3.950000e-01  3.576000e+00
TDG5  SQ1p  1  3.650000e-01  4.948000e+00
TDG5  TQ1p  1  3.400000e-01  7.399000e+00
TDG5  Q1n  1  3.950000e-01  2.886000e+00
TDG5  SQ1n  1  3.650000e-01  4.228000e+00
TDG5  TQ1n  1  3.400000e-01  6.429000e+00
P6  TDT0  1  4.300000e-01  2.320000e+00
SP6  TDT0  1  4.100000e-01  1.910000e+00
TP6  TDT0  1  3.780000e-01  1.450000e+00
P5  TDT0  1  4.300000e-01  2.320000e+00
SP5  TDT0  1  4.100000e-01  1.910000e+00
TP5  TDT0  1  3.780000e-01  1.450000e+00
P4  TDT0  1  4.300000e-01  2.530000e+00
SP4  TDT0  1  4.100000e-01  2.040000e+00
TP4  TDT0  1  3.660000e-01  1.600000e+00
P3  TDT0  1  4.300000e-01  2.770000e+00
SP3  TDT0  1  4.100000e-01  2.200000e+00
TP3  TDT0  1  3.650000e-01  1.750000e+00
P2  TDT0  1  4.300000e-01  2.920000e+00
SP2  TDT0  1  4.100000e-01  2.350000e+00
TP2  TDT0  1  3.650000e-01  1.910000e+00
P1  TDT0  1  4.300000e-01  2.920000e+00
SP1  TDT0  1  4.100000e-01  2.350000e+00
TP1  TDT0  1  3.650000e-01  1.910000e+00
N6  TDT0  1  4.300000e-01  2.920000e+00
SN6  TDT0  1  4.100000e-01  2.350000e+00
TN6  TDT0  1  3.650000e-01  1.910000e+00
N5  TDT0  1  4.300000e-01  2.920000e+00
SN5  TDT0  1  4.100000e-01  2.350000e+00
TN5  TDT0  1  3.650000e-01  1.910000e+00
N4  TDT0  1  4.300000e-01  2.920000e+00
SN4  TDT0  1  4.100000e-01  2.350000e+00
TN4  TDT0  1  3.650000e-01  1.910000e+00
N3  TDT0  1  4.300000e-01  2.920000e+00
SN3  TDT0  1  4.100000e-01  2.350000e+00
TN3  TDT0  1  3.650000e-01  1.910000e+00
N2  TDT0  1  4.300000e-01  2.920000e+00
SN2  TDT0  1  4.100000e-01  2.350000e+00
TN2  TDT0  1  3.650000e-01  1.910000e+00
N1  TDT0  1  4.300000e-01  3.160000e+00
SN1  TDT0  1  4.100000e-01  2.600000e+00
TN1  TDT0  1  3.650000e-01  2.110000e+00
TDT0  C6  1  4.300000e-01  3.160000e+00
TDT0  SC6  1  4.100000e-01  2.600000e+00
TDT0  TC6  1  3.650000e-01  2.110000e+00
TDT0  C5  1  4.300000e-01  2.920000e+00
TDT0  SC5  1  4.100000e-01  2.350000e+00
TDT0  TC5  1  3.650000e-01  1.910000e+00
TDT0  C4  1  4.300000e-01  2.920000e+00
TDT0  SC4  1  4.100000e-01  2.350000e+00
TDT0  TC4  1  3.650000e-01  1.910000e+00
TDT0  C3  1  4.300000e-01  2.770000e+00
TDT0  SC3  1  4.100000e-01  2.200000e+00
TDT0  TC3  1  3.650000e-01  1.750000e+00
TDT0  C2  1  4.300000e-01  2.530000e+00
TDT0  SC2  1  4.100000e-01  2.040000e+00
TDT0  TC2  1  3.660000e-01  1.600000e+00
TDT0  C1  1  4.300000e-01  2.320000e+00
TDT0  SC1  1  4.100000e-01  1.910000e+00
TDT0  TC1  1  3.780000e-01  1.450000e+00
TDT0  X4  1  4.300000e-01  2.920000e+00
TDT0  SX4  1  4.100000e-01  2.350000e+00
TDT0  TX4  1  3.650000e-01  1.910000e+00
TDT0  X3  1  4.300000e-01  2.920000e+00
TDT0  SX3  1  4.100000e-01  2.350000e+00
TDT0  TX3  1  3.650000e-01  1.910000e+00
TDT0  X2  1  4.300000e-01  2.770000e+00
TDT0  SX2  1  4.100000e-01  2.200000e+00
TDT0  TX2  1  3.650000e-01  1.750000e+00
TDT0  X1  1  4.300000e-01  2.770000e+00
TDT0  SX1  1  4.100000e-01  2.200000e+00
TDT0  TX1  1  3.650000e-01  1.750000e+00
TDT0  SN1dq  1  4.100000e-01  2.840000e+00
TDT0  SX1eq  1  4.100000e-01  2.840000e+00
TDT0  SX2eq  1  4.100000e-01  2.840000e+00
TDT0  SX3eq  1  4.100000e-01  3.070000e+00
TDT0  SX4eq  1  4.100000e-01  3.070000e+00
TDT0  SC1eq  1  4.100000e-01  2.350000e+00
TDT0  SC2eq  1  4.100000e-01  2.600000e+00
TDT0  SC3eq  1  4.100000e-01  2.840000e+00
TDT0  SC4eq  1  4.100000e-01  3.070000e+00
TDT0  SC5eq  1  4.100000e-01  3.070000e+00
TDT0  SC6eq  1  4.100000e-01  3.310000e+00
TDT0  SX1vq  1  4.100000e-01  2.350000e+00
TDT0  SX2vq  1  4.100000e-01  2.350000e+00
TDT0  SX3vq  1  4.100000e-01  2.600000e+00
TDT0  SX4vq  1  4.100000e-01  2.600000e+00
TDT0  SC1vq  1  4.100000e-01  2.040000e+00
TDT0  SC2vq  1  4.100000e-01  2.200000e+00
TDT0  SC3vq  1  4.100000e-01  2.350000e+00
TDT0  SC4vq  1  4.100000e-01  2.600000e+00
TDT0  SC5vq  1  4.100000e-01  2.600000e+00
TDT0  SC6vq  1  4.100000e-01  2.840000e+00
TDT0  SN1aq  1  4.100000e-01  3.310000e+00
TDT0  SN1dh  1  4.100000e-01  2.350000e+00
TDT0  SX1eh  1  4.100000e-01  2.350000e+00
TDT0  SX2eh  1  4.100000e-01  2.350000e+00
TDT0  SX3eh  1  4.100000e-01  2.600000e+00
TDT0  SX4eh  1  4.100000e-01  2.600000e+00
TDT0  SC1eh  1  4.100000e-01  2.040000e+00
TDT0  SC2eh  1  4.100000e-01  2.200000e+00
TDT0  SC3eh  1  4.100000e-01  2.350000e+00
TDT0  SC4eh  1  4.100000e-01  2.600000e+00
TDT0  SC5eh  1  4.100000e-01  2.600000e+00
TDT0  SC6eh  1  4.100000e-01  2.840000e+00
TDT0  SX1vh  1  4.100000e-01  2.040000e+00
TDT0  SX2vh  1  4.100000e-01  2.040000e+00
TDT0  SX3vh  1  4.100000e-01  2.200000e+00
TDT0  SX4vh  1  4.100000e-01  2.200000e+00
TDT0  SC1vh  1  4.100000e-01  1.750000e+00
TDT0  SC2vh  1  4.100000e-01  1.910000e+00
TDT0  SC3vh  1  4.100000e-01  2.040000e+00
TDT0  SC4vh  1  4.100000e-01  2.200000e+00
TDT0  SC5vh  1  4.100000e-01  2.200000e+00
TDT0  SC6vh  1  4.100000e-01  2.350000e+00
TDT0  SN1ah  1  4.100000e-01  2.840000e+00
TDT0  SN1dr  1  4.100000e-01  2.350000e+00
TDT0  SX1er  1  4.100000e-01  2.350000e+00
TDT0  SX2er  1  4.100000e-01  2.350000e+00
TDT0  SX3er  1  4.100000e-01  2.600000e+00
TDT0  SX4er  1  4.100000e-01  2.600000e+00
TDT0  SC1er  1  4.100000e-01  2.040000e+00
TDT0  SC2er  1  4.100000e-01  2.200000e+00
TDT0  SC3er  1  4.100000e-01  2.350000e+00
TDT0  SC4er  1  4.100000e-01  2.600000e+00
TDT0  SC5er  1  4.100000e-01  2.600000e+00
TDT0  SC6er  1  4.100000e-01  2.840000e+00
TDT0  SX1vr  1  4.100000e-01  2.040000e+00
TDT0  SX2vr  1  4.100000e-01  2.040000e+00
TDT0  SX3vr  1  4.100000e-01  2.200000e+00
TDT0  SX4vr  1  4.100000e-01  2.200000e+00
TDT0  SC1vr  1  4.100000e-01  1.750000e+00
TDT0  SC2vr  1  4.100000e-01  1.910000e+00
TDT0  SC3vr  1  4.100000e-01  2.040000e+00
TDT0  SC4vr  1  4.100000e-01  2.200000e+00
TDT0  SC5vr  1  4.100000e-01  2.200000e+00
TDT0  SC6vr  1  4.100000e-01  2.350000e+00
TDT0  SN1ar  1  4.100000e-01  2.840000e+00
SP6d  TDT0  1  4.100000e-01  1.910000e+00
SP5d  TDT0  1  4.100000e-01  1.910000e+00
SP4d  TDT0  1  4.100000e-01  2.040000e+00
SP3d  TDT0  1  4.100000e-01  2.200000e+00
SP2d  TDT0  1  4.100000e-01  2.200000e+00
SP1d  TDT0  1  4.100000e-01  2.200000e+00
SN6d  TDT0  1  4.100000e-01  2.200000e+00
SN5d  TDT0  1  4.100000e-01  2.200000e+00
SN4d  TDT0  1  4.100000e-01  2.200000e+00
SN3d  TDT0  1  4.100000e-01  2.200000e+00
SN2d  TDT0  1  4.100000e-01  2.200000e+00
TDT0  SN1d  1  4.100000e-01  2.350000e+00
SP6a  TDT0  1  4.100000e-01  1.910000e+00
SP5a  TDT0  1  4.100000e-01  1.910000e+00
SP4a  TDT0  1  4.100000e-01  2.040000e+00
SP3a  TDT0  1  4.100000e-01  2.200000e+00
SP2a  TDT0  1  4.100000e-01  2.600000e+00
SP1a  TDT0  1  4.100000e-01  2.600000e+00
SN6a  TDT0  1  4.100000e-01  2.600000e+00
SN5a  TDT0  1  4.100000e-01  2.600000e+00
SN4a  TDT0  1  4.100000e-01  2.600000e+00
SN3a  TDT0  1  4.100000e-01  2.600000e+00
SN2a  TDT0  1  4.100000e-01  2.600000e+00
TDT0  SN1a  1  4.100000e-01  2.840000e+00
TDT0  SC6e  1  4.100000e-01  2.840000e+00
TDT0  SC5e  1  4.100000e-01  2.600000e+00
TDT0  SC4e  1  4.100000e-01  2.600000e+00
TDT0  SC3e  1  4.100000e-01  2.350000e+00
TDT0  SC2e  1  4.100000e-01  2.200000e+00
TDT0  SC1e  1  4.100000e-01  2.040000e+00
TDT0  SX4e  1  4.100000e-01  2.600000e+00
TDT0  SX3e  1  4.100000e-01  2.600000e+00
TDT0  SX2e  1  4.100000e-01  2.350000e+00
TDT0  SX1e  1  4.100000e-01  2.350000e+00
TDT0  SC6v  1  4.100000e-01  2.350000e+00
TDT0  SC5v  1  4.100000e-01  2.200000e+00
TDT0  SC4v  1  4.100000e-01  2.200000e+00
TDT0  SC3v  1  4.100000e-01  2.040000e+00
TDT0  SC2v  1  4.100000e-01  1.910000e+00
TDT0  SC1v  1  4.100000e-01  1.750000e+00
TDT0  SX4v  1  4.100000e-01  2.200000e+00
TDT0  SX3v  1  4.100000e-01  2.200000e+00
TDT0  SX2v  1  4.100000e-01  2.040000e+00
TDT0  SX1v  1  4.100000e-01  2.040000e+00
SP6q  TDT0  1  4.100000e-01  2.200000e+00
SP5q  TDT0  1  4.100000e-01  2.200000e+00
SP4q  TDT0  1  4.100000e-01  2.350000e+00
SP3q  TDT0  1  4.100000e-01  2.600000e+00
SP2q  TDT0  1  4.100000e-01  2.840000e+00
SP1q  TDT0  1  4.100000e-01  2.840000e+00
SN6q  TDT0  1  4.100000e-01  2.840000e+00
SN5q  TDT0  1  4.100000e-01  2.840000e+00
SN4q  TDT0  1  4.100000e-01  2.840000e+00
SN3q  TDT0  1  4.100000e-01  2.840000e+00
SN2q  TDT0  1  4.100000e-01  2.840000e+00
SN1q  TDT0  1  4.100000e-01  3.070000e+00
TDT0  SC6q  1  4.100000e-01  3.070000e+00
TDT0  SC5q  1  4.100000e-01  2.840000e+00
TDT0  SC4q  1  4.100000e-01  2.840000e+00
TDT0  SC3q  1  4.100000e-01  2.600000e+00
TDT0  SC2q  1  4.100000e-01  2.350000e+00
TDT0  SC1q  1  4.100000e-01  2.200000e+00
TDT0  SX4q  1  4.100000e-01  2.840000e+00
TDT0  SX3q  1  4.100000e-01  2.840000e+00
TDT0  SX2q  1  4.100000e-01  2.600000e+00
TDT0  SX1q  1  4.100000e-01  2.600000e+00
SP6h  TDT0  1  4.100000e-01  1.910000e+00
SP5h  TDT0  1  4.100000e-01  1.910000e+00
SP4h  TDT0  1  4.100000e-01  2.040000e+00
SP3h  TDT0  1  4.100000e-01  2.200000e+00
SP2h  TDT0  1  4.100000e-01  2.350000e+00
SP1h  TDT0  1  4.100000e-01  2.350000e+00
SN6h  TDT0  1  4.100000e-01  2.350000e+00
SN5h  TDT0  1  4.100000e-01  2.350000e+00
SN4h  TDT0  1  4.100000e-01  2.350000e+00
SN3h  TDT0  1  4.100000e-01  2.350000e+00
SN2h  TDT0  1  4.100000e-01  2.350000e+00
SN1h  TDT0  1  4.100000e-01  2.600000e+00
TDT0  SC6h  1  4.100000e-01  2.600000e+00
TDT0  SC5h  1  4.100000e-01  2.350000e+00
TDT0  SC4h  1  4.100000e-01  2.350000e+00
TDT0  SC3h  1  4.100000e-01  2.200000e+00
TDT0  SC2h  1  4.100000e-01  2.040000e+00
TDT0  SC1h  1  4.100000e-01  1.910000e+00
TDT0  SX4h  1  4.100000e-01  2.350000e+00
TDT0  SX3h  1  4.100000e-01  2.350000e+00
TDT0  SX2h  1  4.100000e-01  2.200000e+00
TDT0  SX1h  1  4.100000e-01  2.200000e+00
SP6r  TDT0  1  4.100000e-01  1.910000e+00
SP5r  TDT0  1  4.100000e-01  1.910000e+00
SP4r  TDT0  1  4.100000e-01  2.040000e+00
SP3r  TDT0  1  4.100000e-01  2.200000e+00
SP2r  TDT0  1  4.100000e-01  2.350000e+00
SP1r  TDT0  1  4.100000e-01  2.350000e+00
SN6r  TDT0  1  4.100000e-01  2.350000e+00
SN5r  TDT0  1  4.100000e-01  2.350000e+00
SN4r  TDT0  1  4.100000e-01  2.350000e+00
SN3r  TDT0  1  4.100000e-01  2.350000e+00
SN2r  TDT0  1  4.100000e-01  2.350000e+00
SN1r  TDT0  1  4.100000e-01  2.600000e+00
TDT0  SC6r  1  4.100000e-01  2.600000e+00
TDT0  SC5r  1  4.100000e-01  2.350000e+00
TDT0  SC4r  1  4.100000e-01  2.350000e+00
TDT0  SC3r  1  4.100000e-01  2.200000e+00
TDT0  SC2r  1  4.100000e-01  2.040000e+00
TDT0  SC1r  1  4.100000e-01  1.910000e+00
TDT0  SX4r  1  4.100000e-01  2.350000e+00
TDT0  SX3r  1  4.100000e-01  2.350000e+00
TDT0  SX2r  1  4.100000e-01  2.200000e+00
TDT0  SX1r  1  4.100000e-01  2.200000e+00
SP6dq  TDT0  1  4.100000e-01  2.200000e+00
SP5dq  TDT0  1  4.100000e-01  2.200000e+00
SP4dq  TDT0  1  4.100000e-01  2.350000e+00
SP3dq  TDT0  1  4.100000e-01  2.600000e+00
SP2dq  TDT0  1  4.100000e-01  2.600000e+00
SP1dq  TDT0  1  4.100000e-01  2.600000e+00
SN6dq  TDT0  1  4.100000e-01  2.600000e+00
SN5dq  TDT0  1  4.100000e-01  2.600000e+00
SN4dq  TDT0  1  4.100000e-01  2.600000e+00
SN3dq  TDT0  1  4.100000e-01  2.600000e+00
SN2dq  TDT0  1  4.100000e-01  2.600000e+00
SN2aq  TDT0  1  4.100000e-01  3.070000e+00
SN3aq  TDT0  1  4.100000e-01  3.070000e+00
SN4aq  TDT0  1  4.100000e-01  3.070000e+00
SN5aq  TDT0  1  4.100000e-01  3.070000e+00
SN6aq  TDT0  1  4.100000e-01  3.070000e+00
SP1aq  TDT0  1  4.100000e-01  3.070000e+00
SP2aq  TDT0  1  4.100000e-01  3.070000e+00
SP3aq  TDT0  1  4.100000e-01  2.600000e+00
SP4aq  TDT0  1  4.100000e-01  2.350000e+00
SP5aq  TDT0  1  4.100000e-01  2.200000e+00
SP6aq  TDT0  1  4.100000e-01  2.200000e+00
SP6dh  TDT0  1  4.100000e-01  1.910000e+00
SP5dh  TDT0  1  4.100000e-01  1.910000e+00
SP4dh  TDT0  1  4.100000e-01  2.040000e+00
SP3dh  TDT0  1  4.100000e-01  2.200000e+00
SP2dh  TDT0  1  4.100000e-01  2.200000e+00
SP1dh  TDT0  1  4.100000e-01  2.200000e+00
SN6dh  TDT0  1  4.100000e-01  2.200000e+00
SN5dh  TDT0  1  4.100000e-01  2.200000e+00
SN4dh  TDT0  1  4.100000e-01  2.200000e+00
SN3dh  TDT0  1  4.100000e-01  2.200000e+00
SN2dh  TDT0  1  4.100000e-01  2.200000e+00
SN2ah  TDT0  1  4.100000e-01  2.600000e+00
SN3ah  TDT0  1  4.100000e-01  2.600000e+00
SN4ah  TDT0  1  4.100000e-01  2.600000e+00
SN5ah  TDT0  1  4.100000e-01  2.600000e+00
SN6ah  TDT0  1  4.100000e-01  2.600000e+00
SP1ah  TDT0  1  4.100000e-01  2.600000e+00
SP2ah  TDT0  1  4.100000e-01  2.600000e+00
SP3ah  TDT0  1  4.100000e-01  2.200000e+00
SP4ah  TDT0  1  4.100000e-01  2.040000e+00
SP5ah  TDT0  1  4.100000e-01  1.910000e+00
SP6ah  TDT0  1  4.100000e-01  1.910000e+00
SP6dr  TDT0  1  4.100000e-01  1.910000e+00
SP5dr  TDT0  1  4.100000e-01  1.910000e+00
SP4dr  TDT0  1  4.100000e-01  2.040000e+00
SP3dr  TDT0  1  4.100000e-01  2.200000e+00
SP2dr  TDT0  1  4.100000e-01  2.200000e+00
SP1dr  TDT0  1  4.100000e-01  2.200000e+00
SN6dr  TDT0  1  4.100000e-01  2.200000e+00
SN5dr  TDT0  1  4.100000e-01  2.200000e+00
SN4dr  TDT0  1  4.100000e-01  2.200000e+00
SN3dr  TDT0  1  4.100000e-01  2.200000e+00
SN2dr  TDT0  1  4.100000e-01  2.200000e+00
SN2ar  TDT0  1  4.100000e-01  2.600000e+00
SN3ar  TDT0  1  4.100000e-01  2.600000e+00
SN4ar  TDT0  1  4.100000e-01  2.600000e+00
SN5ar  TDT0  1  4.100000e-01  2.600000e+00
SN6ar  TDT0  1  4.100000e-01  2.600000e+00
SP1ar  TDT0  1  4.100000e-01  2.600000e+00
SP2ar  TDT0  1  4.100000e-01  2.600000e+00
SP3ar  TDT0  1  4.100000e-01  2.200000e+00
SP4ar  TDT0  1  4.100000e-01  2.040000e+00
SP5ar  TDT0  1  4.100000e-01  1.910000e+00
SP6ar  TDT0  1  4.100000e-01  1.910000e+00
TDT0  TN1dq  1  3.650000e-01  2.340000e+00
TDT0  TX1eq  1  3.650000e-01  2.340000e+00
TDT0  TX2eq  1  3.650000e-01  2.340000e+00
TDT0  TX3eq  1  3.650000e-01  2.570000e+00
TDT0  TX4eq  1  3.650000e-01  2.570000e+00
TDT0  TC1eq  1  3.650000e-01  1.910000e+00
TDT0  TC2eq  1  3.650000e-01  2.110000e+00
TDT0  TC3eq  1  3.650000e-01  2.340000e+00
TDT0  TC4eq  1  3.650000e-01  2.570000e+00
TDT0  TC5eq  1  3.650000e-01  2.570000e+00
TDT0  TC6eq  1  3.650000e-01  2.830000e+00
TDT0  TX1vq  1  3.650000e-01  1.910000e+00
TDT0  TX2vq  1  3.650000e-01  1.910000e+00
TDT0  TX3vq  1  3.650000e-01  2.110000e+00
TDT0  TX4vq  1  3.650000e-01  2.110000e+00
TDT0  TC1vq  1  3.660000e-01  1.600000e+00
TDT0  TC2vq  1  3.650000e-01  1.750000e+00
TDT0  TC3vq  1  3.650000e-01  1.910000e+00
TDT0  TC4vq  1  3.650000e-01  2.110000e+00
TDT0  TC5vq  1  3.650000e-01  2.110000e+00
TDT0  TC6vq  1  3.650000e-01  2.340000e+00
TDT0  TN1aq  1  3.650000e-01  2.830000e+00
TDT0  TN1dh  1  3.650000e-01  1.910000e+00
TDT0  TX1eh  1  3.650000e-01  1.910000e+00
TDT0  TX2eh  1  3.650000e-01  1.910000e+00
TDT0  TX3eh  1  3.650000e-01  2.110000e+00
TDT0  TX4eh  1  3.650000e-01  2.110000e+00
TDT0  TC1eh  1  3.660000e-01  1.600000e+00
TDT0  TC2eh  1  3.650000e-01  1.750000e+00
TDT0  TC3eh  1  3.650000e-01  1.910000e+00
TDT0  TC4eh  1  3.650000e-01  2.110000e+00
TDT0  TC5eh  1  3.650000e-01  2.110000e+00
TDT0  TC6eh  1  3.650000e-01  2.340000e+00
TDT0  TX1vh  1  3.660000e-01  1.600000e+00
TDT0  TX2vh  1  3.660000e-01  1.600000e+00
TDT0  TX3vh  1  3.650000e-01  1.750000e+00
TDT0  TX4vh  1  3.650000e-01  1.750000e+00
TDT0  TC1vh  1  3.940000e-01  1.290000e+00
TDT0  TC2vh  1  3.780000e-01  1.450000e+00
TDT0  TC3vh  1  3.660000e-01  1.600000e+00
TDT0  TC4vh  1  3.650000e-01  1.750000e+00
TDT0  TC5vh  1  3.650000e-01  1.750000e+00
TDT0  TC6vh  1  3.650000e-01  1.910000e+00
TDT0  TN1ah  1  3.650000e-01  2.340000e+00
TDT0  TN1dr  1  3.650000e-01  1.910000e+00
TDT0  TX1er  1  3.650000e-01  1.910000e+00
TDT0  TX2er  1  3.650000e-01  1.910000e+00
TDT0  TX3er  1  3.650000e-01  2.110000e+00
TDT0  TX4er  1  3.650000e-01  2.110000e+00
TDT0  TC1er  1  3.660000e-01  1.600000e+00
TDT0  TC2er  1  3.650000e-01  1.750000e+00
TDT0  TC3er  1  3.650000e-01  1.910000e+00
TDT0  TC4er  1  3.650000e-01  2.110000e+00
TDT0  TC5er  1  3.650000e-01  2.110000e+00
TDT0  TC6er  1  3.650000e-01  2.340000e+00
TDT0  TX1vr  1  3.660000e-01  1.600000e+00
TDT0  TX2vr  1  3.660000e-01  1.600000e+00
TDT0  TX3vr  1  3.650000e-01  1.750000e+00
TDT0  TX4vr  1  3.650000e-01  1.750000e+00
TDT0  TC1vr  1  3.940000e-01  1.290000e+00
TDT0  TC2vr  1  3.780000e-01  1.450000e+00
TDT0  TC3vr  1  3.660000e-01  1.600000e+00
TDT0  TC4vr  1  3.650000e-01  1.750000e+00
TDT0  TC5vr  1  3.650000e-01  1.750000e+00
TDT0  TC6vr  1  3.650000e-01  1.910000e+00
TDT0  TN1ar  1  3.650000e-01  2.340000e+00
TDT0  TN1d  1  3.650000e-01  1.910000e+00
TDT0  TN1a  1  3.650000e-01  2.340000e+00
TDT0  TC6e  1  3.650000e-01  2.340000e+00
TDT0  TC5e  1  3.650000e-01  2.110000e+00
TDT0  TC4e  1  3.650000e-01  2.110000e+00
TDT0  TC3e  1  3.650000e-01  1.910000e+00
TDT0  TC2e  1  3.650000e-01  1.750000e+00
TDT0  TC1e  1  3.660000e-01  1.600000e+00
TDT0  TX4e  1  3.650000e-01  2.110000e+00
TDT0  TX3e  1  3.650000e-01  2.110000e+00
TDT0  TX2e  1  3.650000e-01  1.910000e+00
TDT0  TX1e  1  3.650000e-01  1.910000e+00
TDT0  TC6v  1  3.650000e-01  1.910000e+00
TDT0  TC5v  1  3.650000e-01  1.750000e+00
TDT0  TC4v  1  3.650000e-01  1.750000e+00
TDT0  TC3v  1  3.660000e-01  1.600000e+00
TDT0  TC2v  1  3.780000e-01  1.450000e+00
TDT0  TC1v  1  3.940000e-01  1.290000e+00
TDT0  TX4v  1  3.650000e-01  1.750000e+00
TDT0  TX3v  1  3.650000e-01  1.750000e+00
TDT0  TX2v  1  3.660000e-01  1.600000e+00
TDT0  TX1v  1  3.660000e-01  1.600000e+00
TDT0  TC6q  1  3.650000e-01  2.570000e+00
TDT0  TC5q  1  3.650000e-01  2.340000e+00
TDT0  TC4q  1  3.650000e-01  2.340000e+00
TDT0  TC3q  1  3.650000e-01  2.110000e+00
TDT0  TC2q  1  3.650000e-01  1.910000e+00
TDT0  TC1q  1  3.650000e-01  1.750000e+00
TDT0  TX4q  1  3.650000e-01  2.340000e+00
TDT0  TX3q  1  3.650000e-01  2.340000e+00
TDT0  TX2q  1  3.650000e-01  2.110000e+00
TDT0  TX1q  1  3.650000e-01  2.110000e+00
TDT0  TC6h  1  3.650000e-01  2.110000e+00
TDT0  TC5h  1  3.650000e-01  1.910000e+00
TDT0  TC4h  1  3.650000e-01  1.910000e+00
TDT0  TC3h  1  3.650000e-01  1.750000e+00
TDT0  TC2h  1  3.660000e-01  1.600000e+00
TDT0  TC1h  1  3.780000e-01  1.450000e+00
TDT0  TX4h  1  3.650000e-01  1.910000e+00
TDT0  TX3h  1  3.650000e-01  1.910000e+00
TDT0  TX2h  1  3.650000e-01  1.750000e+00
TDT0  TX1h  1  3.650000e-01  1.750000e+00
TDT0  TC6r  1  3.650000e-01  2.110000e+00
TDT0  TC5r  1  3.650000e-01  1.910000e+00
TDT0  TC4r  1  3.650000e-01  1.910000e+00
TDT0  TC3r  1  3.650000e-01  1.750000e+00
TDT0  TC2r  1  3.660000e-01  1.600000e+00
TDT0  TC1r  1  3.780000e-01  1.450000e+00
TDT0  TX4r  1  3.650000e-01  1.910000e+00
TDT0  TX3r  1  3.650000e-01  1.910000e+00
TDT0  TX2r  1  3.650000e-01  1.750000e+00
TDT0  TX1r  1  3.650000e-01  1.750000e+00
TP6d  TDT0  1  3.780000e-01  1.450000e+00
TP5d  TDT0  1  3.780000e-01  1.450000e+00
TP4d  TDT0  1  3.660000e-01  1.600000e+00
TP3d  TDT0  1  3.650000e-01  1.750000e+00
TP2d  TDT0  1  3.650000e-01  1.750000e+00
TP1d  TDT0  1  3.650000e-01  1.750000e+00
TN6d  TDT0  1  3.650000e-01  1.750000e+00
TN5d  TDT0  1  3.650000e-01  1.750000e+00
TN4d  TDT0  1  3.650000e-01  1.750000e+00
TN3d  TDT0  1  3.650000e-01  1.750000e+00
TN2d  TDT0  1  3.650000e-01  1.750000e+00
TP6a  TDT0  1  3.780000e-01  1.450000e+00
TP5a  TDT0  1  3.780000e-01  1.450000e+00
TP4a  TDT0  1  3.660000e-01  1.600000e+00
TP3a  TDT0  1  3.650000e-01  1.750000e+00
TP2a  TDT0  1  3.650000e-01  2.110000e+00
TP1a  TDT0  1  3.650000e-01  2.110000e+00
TN6a  TDT0  1  3.650000e-01  2.110000e+00
TN5a  TDT0  1  3.650000e-01  2.110000e+00
TN4a  TDT0  1  3.650000e-01  2.110000e+00
TN3a  TDT0  1  3.650000e-01  2.110000e+00
TN2a  TDT0  1  3.650000e-01  2.110000e+00
TP6q  TDT0  1  3.650000e-01  1.750000e+00
TP5q  TDT0  1  3.650000e-01  1.750000e+00
TP4q  TDT0  1  3.650000e-01  1.910000e+00
TP3q  TDT0  1  3.650000e-01  2.110000e+00
TP2q  TDT0  1  3.650000e-01  2.340000e+00
TP1q  TDT0  1  3.650000e-01  2.340000e+00
TN6q  TDT0  1  3.650000e-01  2.340000e+00
TN5q  TDT0  1  3.650000e-01  2.340000e+00
TN4q  TDT0  1  3.650000e-01  2.340000e+00
TN3q  TDT0  1  3.650000e-01  2.340000e+00
TN2q  TDT0  1  3.650000e-01  2.340000e+00
TN1q  TDT0  1  3.650000e-01  2.570000e+00
TP6h  TDT0  1  3.780000e-01  1.450000e+00
TP5h  TDT0  1  3.780000e-01  1.450000e+00
TP4h  TDT0  1  3.660000e-01  1.600000e+00
TP3h  TDT0  1  3.650000e-01  1.750000e+00
TP2h  TDT0  1  3.650000e-01  1.910000e+00
TP1h  TDT0  1  3.650000e-01  1.910000e+00
TN6h  TDT0  1  3.650000e-01  1.910000e+00
TN5h  TDT0  1  3.650000e-01  1.910000e+00
TN4h  TDT0  1  3.650000e-01  1.910000e+00
TN3h  TDT0  1  3.650000e-01  1.910000e+00
TN2h  TDT0  1  3.650000e-01  1.910000e+00
TN1h  TDT0  1  3.650000e-01  2.110000e+00
TP6r  TDT0  1  3.780000e-01  1.450000e+00
TP5r  TDT0  1  3.780000e-01  1.450000e+00
TP4r  TDT0  1  3.660000e-01  1.600000e+00
TP3r  TDT0  1  3.650000e-01  1.750000e+00
TP2r  TDT0  1  3.650000e-01  1.910000e+00
TP1r  TDT0  1  3.650000e-01  1.910000e+00
TN6r  TDT0  1  3.650000e-01  1.910000e+00
TN5r  TDT0  1  3.650000e-01  1.910000e+00
TN4r  TDT0  1  3.650000e-01  1.910000e+00
TN3r  TDT0  1  3.650000e-01  1.910000e+00
TN2r  TDT0  1  3.650000e-01  1.910000e+00
TN1r  TDT0  1  3.650000e-01  2.110000e+00
TP6dq  TDT0  1  3.650000e-01  1.750000e+00
TP5dq  TDT0  1  3.650000e-01  1.750000e+00
TP4dq  TDT0  1  3.650000e-01  1.910000e+00
TP3dq  TDT0  1  3.650000e-01  2.110000e+00
TP2dq  TDT0  1  3.650000e-01  2.110000e+00
TP1dq  TDT0  1  3.650000e-01  2.110000e+00
TN6dq  TDT0  1  3.650000e-01  2.110000e+00
TN5dq  TDT0  1  3.650000e-01  2.110000e+00
TN4dq  TDT0  1  3.650000e-01  2.110000e+00
TN3dq  TDT0  1  3.650000e-01  2.110000e+00
TN2dq  TDT0  1  3.650000e-01  2.110000e+00
TN2aq  TDT0  1  3.650000e-01  2.570000e+00
TN3aq  TDT0  1  3.650000e-01  2.570000e+00
TN4aq  TDT0  1  3.650000e-01  2.570000e+00
TN5aq  TDT0  1  3.650000e-01  2.570000e+00
TN6aq  TDT0  1  3.650000e-01  2.570000e+00
TP1aq  TDT0  1  3.650000e-01  2.570000e+00
TP2aq  TDT0  1  3.650000e-01  2.570000e+00
TP3aq  TDT0  1  3.650000e-01  2.110000e+00
TP4aq  TDT0  1  3.650000e-01  1.910000e+00
TP5aq  TDT0  1  3.650000e-01  1.750000e+00
TP6aq  TDT0  1  3.650000e-01  1.750000e+00
TP6dh  TDT0  1  3.780000e-01  1.450000e+00
TP5dh  TDT0  1  3.780000e-01  1.450000e+00
TP4dh  TDT0  1  3.660000e-01  1.600000e+00
TP3dh  TDT0  1  3.650000e-01  1.750000e+00
TP2dh  TDT0  1  3.650000e-01  1.750000e+00
TP1dh  TDT0  1  3.650000e-01  1.750000e+00
TN6dh  TDT0  1  3.650000e-01  1.750000e+00
TN5dh  TDT0  1  3.650000e-01  1.750000e+00
TN4dh  TDT0  1  3.650000e-01  1.750000e+00
TN3dh  TDT0  1  3.650000e-01  1.750000e+00
TN2dh  TDT0  1  3.650000e-01  1.750000e+00
TN2ah  TDT0  1  3.650000e-01  2.110000e+00
TN3ah  TDT0  1  3.650000e-01  2.110000e+00
TN4ah  TDT0  1  3.650000e-01  2.110000e+00
TN5ah  TDT0  1  3.650000e-01  2.110000e+00
TN6ah  TDT0  1  3.650000e-01  2.110000e+00
TP1ah  TDT0  1  3.650000e-01  2.110000e+00
TP2ah  TDT0  1  3.650000e-01  2.110000e+00
TP3ah  TDT0  1  3.650000e-01  1.750000e+00
TP4ah  TDT0  1  3.660000e-01  1.600000e+00
TP5ah  TDT0  1  3.780000e-01  1.450000e+00
TP6ah  TDT0  1  3.780000e-01  1.450000e+00
TP6dr  TDT0  1  3.780000e-01  1.450000e+00
TP5dr  TDT0  1  3.780000e-01  1.450000e+00
TP4dr  TDT0  1  3.660000e-01  1.600000e+00
TP3dr  TDT0  1  3.650000e-01  1.750000e+00
TP2dr  TDT0  1  3.650000e-01  1.750000e+00
TP1dr  TDT0  1  3.650000e-01  1.750000e+00
TN6dr  TDT0  1  3.650000e-01  1.750000e+00
TN5dr  TDT0  1  3.650000e-01  1.750000e+00
TN4dr  TDT0  1  3.650000e-01  1.750000e+00
TN3dr  TDT0  1  3.650000e-01  1.750000e+00
TN2dr  TDT0  1  3.650000e-01  1.750000e+00
TN2ar  TDT0  1  3.650000e-01  2.110000e+00
TN3ar  TDT0  1  3.650000e-01  2.110000e+00
TN4ar  TDT0  1  3.650000e-01  2.110000e+00
TN5ar  TDT0  1  3.650000e-01  2.110000e+00
TN6ar  TDT0  1  3.650000e-01  2.110000e+00
TP1ar  TDT0  1  3.650000e-01  2.110000e+00
TP2ar  TDT0  1  3.650000e-01  2.110000e+00
TP3ar  TDT0  1  3.650000e-01  1.750000e+00
TP4ar  TDT0  1  3.660000e-01  1.600000e+00
TP5ar  TDT0  1  3.780000e-01  1.450000e+00
TP6ar  TDT0  1  3.780000e-01  1.450000e+00
P6d  TDT0  1  4.300000e-01  2.320000e+00
P5d  TDT0  1  4.300000e-01  2.320000e+00
P4d  TDT0  1  4.300000e-01  2.530000e+00
P3d  TDT0  1  4.300000e-01  2.770000e+00
P2d  TDT0  1  4.300000e-01  2.770000e+00
P1d  TDT0  1  4.300000e-01  2.770000e+00
N6d  TDT0  1  4.300000e-01  2.770000e+00
N5d  TDT0  1  4.300000e-01  2.770000e+00
N4d  TDT0  1  4.300000e-01  2.770000e+00
N3d  TDT0  1  4.300000e-01  2.770000e+00
N2d  TDT0  1  4.300000e-01  2.770000e+00
N1d  TDT0  1  4.300000e-01  2.920000e+00
TDT0  N1dq  1  4.300000e-01  3.160000e+00
TDT0  N1dh  1  4.300000e-01  2.920000e+00
TDT0  N1dr  1  4.300000e-01  2.920000e+00
P6dq  TDT0  1  4.300000e-01  2.770000e+00
P5dq  TDT0  1  4.300000e-01  2.770000e+00
P4dq  TDT0  1  4.300000e-01  2.920000e+00
P3dq  TDT0  1  4.300000e-01  2.930000e+00
P2dq  TDT0  1  4.300000e-01  2.930000e+00
P1dq  TDT0  1  4.300000e-01  2.930000e+00
N6dq  TDT0  1  4.300000e-01  2.930000e+00
N5dq  TDT0  1  4.300000e-01  2.930000e+00
N4dq  TDT0  1  4.300000e-01  2.930000e+00
N3dq  TDT0  1  4.300000e-01  2.930000e+00
N2dq  TDT0  1  4.300000e-01  2.930000e+00
P6dh  TDT0  1  4.300000e-01  2.320000e+00
P5dh  TDT0  1  4.300000e-01  2.320000e+00
P4dh  TDT0  1  4.300000e-01  2.530000e+00
P3dh  TDT0  1  4.300000e-01  2.770000e+00
P2dh  TDT0  1  4.300000e-01  2.770000e+00
P1dh  TDT0  1  4.300000e-01  2.770000e+00
N6dh  TDT0  1  4.300000e-01  2.770000e+00
N5dh  TDT0  1  4.300000e-01  2.770000e+00
N4dh  TDT0  1  4.300000e-01  2.770000e+00
N3dh  TDT0  1  4.300000e-01  2.770000e+00
N2dh  TDT0  1  4.300000e-01  2.770000e+00
P6dr  TDT0  1  4.300000e-01  2.320000e+00
P5dr  TDT0  1  4.300000e-01  2.320000e+00
P4dr  TDT0  1  4.300000e-01  2.530000e+00
P3dr  TDT0  1  4.300000e-01  2.770000e+00
P2dr  TDT0  1  4.300000e-01  2.770000e+00
P1dr  TDT0  1  4.300000e-01  2.770000e+00
N6dr  TDT0  1  4.300000e-01  2.770000e+00
N5dr  TDT0  1  4.300000e-01  2.770000e+00
N4dr  TDT0  1  4.300000e-01  2.770000e+00
N3dr  TDT0  1  4.300000e-01  2.770000e+00
N2dr  TDT0  1  4.300000e-01  2.770000e+00
TDT0  N1a  1  4.300000e-01  3.160000e+00
TDT0  N1aq  1  4.300000e-01  3.590000e+00
TDT0  N1ah  1  4.300000e-01  3.160000e+00
TDT0  N1ar  1  4.300000e-01  3.160000e+00
P6a  TDT0  1  4.300000e-01  2.320000e+00
P5a  TDT0  1  4.300000e-01  2.320000e+00
P4a  TDT0  1  4.300000e-01  2.530000e+00
P3a  TDT0  1  4.300000e-01  2.770000e+00
P2a  TDT0  1  4.300000e-01  2.930000e+00
P1a  TDT0  1  4.300000e-01  2.930000e+00
N6a  TDT0  1  4.300000e-01  2.930000e+00
N5a  TDT0  1  4.300000e-01  2.930000e+00
N4a  TDT0  1  4.300000e-01  2.930000e+00
N3a  TDT0  1  4.300000e-01  2.930000e+00
N2a  TDT0  1  4.300000e-01  2.930000e+00
N2aq  TDT0  1  4.300000e-01  3.380000e+00
N3aq  TDT0  1  4.300000e-01  3.380000e+00
N4aq  TDT0  1  4.300000e-01  3.380000e+00
N5aq  TDT0  1  4.300000e-01  3.380000e+00
N6aq  TDT0  1  4.300000e-01  3.380000e+00
P1aq  TDT0  1  4.300000e-01  3.380000e+00
P2aq  TDT0  1  4.300000e-01  3.380000e+00
P3aq  TDT0  1  4.300000e-01  2.930000e+00
P4aq  TDT0  1  4.300000e-01  2.920000e+00
P5aq  TDT0  1  4.300000e-01  2.770000e+00
P6aq  TDT0  1  4.300000e-01  2.770000e+00
N2ah  TDT0  1  4.300000e-01  2.930000e+00
N3ah  TDT0  1  4.300000e-01  2.930000e+00
N4ah  TDT0  1  4.300000e-01  2.930000e+00
N5ah  TDT0  1  4.300000e-01  2.930000e+00
N6ah  TDT0  1  4.300000e-01  2.930000e+00
P1ah  TDT0  1  4.300000e-01  2.930000e+00
P2ah  TDT0  1  4.300000e-01  2.930000e+00
P3ah  TDT0  1  4.300000e-01  2.770000e+00
P4ah  TDT0  1  4.300000e-01  2.530000e+00
P5ah  TDT0  1  4.300000e-01  2.320000e+00
P6ah  TDT0  1  4.300000e-01  2.320000e+00
N2ar  TDT0  1  4.300000e-01  2.930000e+00
N3ar  TDT0  1  4.300000e-01  2.930000e+00
N4ar  TDT0  1  4.300000e-01  2.930000e+00
N5ar  TDT0  1  4.300000e-01  2.930000e+00
N6ar  TDT0  1  4.300000e-01  2.930000e+00
P1ar  TDT0  1  4.300000e-01  2.930000e+00
P2ar  TDT0  1  4.300000e-01  2.930000e+00
P3ar  TDT0  1  4.300000e-01  2.770000e+00
P4ar  TDT0  1  4.300000e-01  2.530000e+00
P5ar  TDT0  1  4.300000e-01  2.320000e+00
P6ar  TDT0  1  4.300000e-01  2.320000e+00
TDT0  C6e  1  4.300000e-01  3.380000e+00
TDT0  C5e  1  4.300000e-01  3.160000e+00
TDT0  C4e  1  4.300000e-01  3.160000e+00
TDT0  C3e  1  4.300000e-01  2.920000e+00
TDT0  C2e  1  4.300000e-01  2.770000e+00
TDT0  C1e  1  4.300000e-01  2.530000e+00
TDT0  X4e  1  4.300000e-01  3.160000e+00
TDT0  X3e  1  4.300000e-01  3.160000e+00
TDT0  X2e  1  4.300000e-01  2.920000e+00
TDT0  X1e  1  4.300000e-01  2.920000e+00
TDT0  X1eq  1  4.300000e-01  3.380000e+00
TDT0  X2eq  1  4.300000e-01  3.380000e+00
TDT0  X3eq  1  4.300000e-01  3.590000e+00
TDT0  X4eq  1  4.300000e-01  3.590000e+00
TDT0  C1eq  1  4.300000e-01  2.920000e+00
TDT0  C2eq  1  4.300000e-01  3.160000e+00
TDT0  C3eq  1  4.300000e-01  3.380000e+00
TDT0  C4eq  1  4.300000e-01  3.590000e+00
TDT0  C5eq  1  4.300000e-01  3.590000e+00
TDT0  C6eq  1  4.300000e-01  3.770000e+00
TDT0  X1eh  1  4.300000e-01  2.920000e+00
TDT0  X2eh  1  4.300000e-01  2.920000e+00
TDT0  X3eh  1  4.300000e-01  3.160000e+00
TDT0  X4eh  1  4.300000e-01  3.160000e+00
TDT0  C1eh  1  4.300000e-01  2.530000e+00
TDT0  C2eh  1  4.300000e-01  2.770000e+00
TDT0  C3eh  1  4.300000e-01  2.920000e+00
TDT0  C4eh  1  4.300000e-01  3.160000e+00
TDT0  C5eh  1  4.300000e-01  3.160000e+00
TDT0  C6eh  1  4.300000e-01  3.380000e+00
TDT0  X1er  1  4.300000e-01  2.920000e+00
TDT0  X2er  1  4.300000e-01  2.920000e+00
TDT0  X3er  1  4.300000e-01  3.160000e+00
TDT0  X4er  1  4.300000e-01  3.160000e+00
TDT0  C1er  1  4.300000e-01  2.530000e+00
TDT0  C2er  1  4.300000e-01  2.770000e+00
TDT0  C3er  1  4.300000e-01  2.920000e+00
TDT0  C4er  1  4.300000e-01  3.160000e+00
TDT0  C5er  1  4.300000e-01  3.160000e+00
TDT0  C6er  1  4.300000e-01  3.380000e+00
TDT0  C6v  1  4.300000e-01  2.920000e+00
TDT0  C5v  1  4.300000e-01  2.530000e+00
TDT0  C4v  1  4.300000e-01  2.530000e+00
TDT0  C3v  1  4.300000e-01  2.320000e+00
TDT0  C2v  1  4.300000e-01  2.160000e+00
TDT0  C1v  1  4.300000e-01  1.930000e+00
TDT0  X4v  1  4.300000e-01  2.530000e+00
TDT0  X3v  1  4.300000e-01  2.530000e+00
TDT0  X2v  1  4.300000e-01  2.320000e+00
TDT0  X1v  1  4.300000e-01  2.320000e+00
TDT0  X1vq  1  4.300000e-01  2.920000e+00
TDT0  X2vq  1  4.300000e-01  2.920000e+00
TDT0  X3vq  1  4.300000e-01  2.930000e+00
TDT0  X4vq  1  4.300000e-01  2.930000e+00
TDT0  C1vq  1  4.300000e-01  2.320000e+00
TDT0  C2vq  1  4.300000e-01  2.530000e+00
TDT0  C3vq  1  4.300000e-01  2.920000e+00
TDT0  C4vq  1  4.300000e-01  2.930000e+00
TDT0  C5vq  1  4.300000e-01  2.930000e+00
TDT0  C6vq  1  4.300000e-01  3.160000e+00
TDT0  X1vh  1  4.300000e-01  2.320000e+00
TDT0  X2vh  1  4.300000e-01  2.320000e+00
TDT0  X3vh  1  4.300000e-01  2.530000e+00
TDT0  X4vh  1  4.300000e-01  2.530000e+00
TDT0  C1vh  1  4.300000e-01  1.930000e+00
TDT0  C2vh  1  4.300000e-01  2.160000e+00
TDT0  C3vh  1  4.300000e-01  2.320000e+00
TDT0  C4vh  1  4.300000e-01  2.530000e+00
TDT0  C5vh  1  4.300000e-01  2.530000e+00
TDT0  C6vh  1  4.300000e-01  2.920000e+00
TDT0  X1vr  1  4.300000e-01  2.320000e+00
TDT0  X2vr  1  4.300000e-01  2.320000e+00
TDT0  X3vr  1  4.300000e-01  2.530000e+00
TDT0  X4vr  1  4.300000e-01  2.530000e+00
TDT0  C1vr  1  4.300000e-01  1.930000e+00
TDT0  C2vr  1  4.300000e-01  2.160000e+00
TDT0  C3vr  1  4.300000e-01  2.320000e+00
TDT0  C4vr  1  4.300000e-01  2.530000e+00
TDT0  C5vr  1  4.300000e-01  2.530000e+00
TDT0  C6vr  1  4.300000e-01  2.920000e+00
P6q  TDT0  1  4.300000e-01  2.770000e+00
P5q  TDT0  1  4.300000e-01  2.770000e+00
P4q  TDT0  1  4.300000e-01  2.920000e+00
P3q  TDT0  1  4.300000e-01  3.160000e+00
P2q  TDT0  1  4.300000e-01  3.380000e+00
P1q  TDT0  1  4.300000e-01  3.380000e+00
N6q  TDT0  1  4.300000e-01  3.380000e+00
N5q  TDT0  1  4.300000e-01  3.380000e+00
N4q  TDT0  1  4.300000e-01  3.380000e+00
N3q  TDT0  1  4.300000e-01  3.380000e+00
N2q  TDT0  1  4.300000e-01  3.380000e+00
N1q  TDT0  1  4.300000e-01  3.590000e+00
P6h  TDT0  1  4.300000e-01  2.320000e+00
P5h  TDT0  1  4.300000e-01  2.320000e+00
P4h  TDT0  1  4.300000e-01  2.530000e+00
P3h  TDT0  1  4.300000e-01  2.770000e+00
P2h  TDT0  1  4.300000e-01  2.920000e+00
P1h  TDT0  1  4.300000e-01  2.920000e+00
N6h  TDT0  1  4.300000e-01  2.920000e+00
N5h  TDT0  1  4.300000e-01  2.920000e+00
N4h  TDT0  1  4.300000e-01  2.920000e+00
N3h  TDT0  1  4.300000e-01  2.920000e+00
N2h  TDT0  1  4.300000e-01  2.920000e+00
N1h  TDT0  1  4.300000e-01  3.160000e+00
P6r  TDT0  1  4.300000e-01  2.320000e+00
P5r  TDT0  1  4.300000e-01  2.320000e+00
P4r  TDT0  1  4.300000e-01  2.530000e+00
P3r  TDT0  1  4.300000e-01  2.770000e+00
P2r  TDT0  1  4.300000e-01  2.920000e+00
P1r  TDT0  1  4.300000e-01  2.920000e+00
N6r  TDT0  1  4.300000e-01  2.920000e+00
N5r  TDT0  1  4.300000e-01  2.920000e+00
N4r  TDT0  1  4.300000e-01  2.920000e+00
N3r  TDT0  1  4.300000e-01  2.920000e+00
N2r  TDT0  1  4.300000e-01  2.920000e+00
N1r  TDT0  1  4.300000e-01  3.160000e+00
TDT0  C6q  1  4.300000e-01  3.590000e+00
TDT0  C5q  1  4.300000e-01  3.380000e+00
TDT0  C4q  1  4.300000e-01  3.380000e+00
TDT0  C3q  1  4.300000e-01  3.160000e+00
TDT0  C2q  1  4.300000e-01  2.920000e+00
TDT0  C1q  1  4.300000e-01  2.770000e+00
TDT0  X4q  1  4.300000e-01  3.380000e+00
TDT0  X3q  1  4.300000e-01  3.380000e+00
TDT0  X2q  1  4.300000e-01  3.160000e+00
TDT0  X1q  1  4.300000e-01  3.160000e+00
TDT0  C6h  1  4.300000e-01  3.160000e+00
TDT0  C5h  1  4.300000e-01  2.920000e+00
TDT0  C4h  1  4.300000e-01  2.920000e+00
TDT0  C3h  1  4.300000e-01  2.770000e+00
TDT0  C2h  1  4.300000e-01  2.530000e+00
TDT0  C1h  1  4.300000e-01  2.320000e+00
TDT0  X4h  1  4.300000e-01  2.920000e+00
TDT0  X3h  1  4.300000e-01  2.920000e+00
TDT0  X2h  1  4.300000e-01  2.770000e+00
TDT0  X1h  1  4.300000e-01  2.770000e+00
TDT0  C6r  1  4.300000e-01  3.160000e+00
TDT0  C5r  1  4.300000e-01  2.920000e+00
TDT0  C4r  1  4.300000e-01  2.920000e+00
TDT0  C3r  1  4.300000e-01  2.770000e+00
TDT0  C2r  1  4.300000e-01  2.530000e+00
TDT0  C1r  1  4.300000e-01  2.320000e+00
TDT0  X4r  1  4.300000e-01  2.920000e+00
TDT0  X3r  1  4.300000e-01  2.920000e+00
TDT0  X2r  1  4.300000e-01  2.770000e+00
TDT0  X1r  1  4.300000e-01  2.770000e+00
W  TDT0  1  4.250000e-01  2.260000e+00
SW  TDT0  1  4.050000e-01  1.680000e+00
TW  TDT0  1  3.780000e-01  1.610000e+00
TDT0  D  1  4.300000e-01  3.388000e+00
TDT0  SD  1  4.100000e-01  7.938000e+00
TDT0  TD  1  3.650000e-01  1.116200e+01
TDT0  Q5  1  4.300000e-01  3.959000e+00
TDT0  SQ5  1  4.100000e-01  4.943000e+00
TDT0  TQ5  1  3.650000e-01  6.486000e+00
TDT0  Q5p  1  4.300000e-01  3.529000e+00
TDT0  SQ5p  1  4.100000e-01  4.713000e+00
TDT0  TQ5p  1  3.650000e-01  6.256000e+00
TDT0  Q5n  1  4.300000e-01  4.139000e+00
TDT0  SQ5n  1  4.100000e-01  5.423000e+00
TDT0  TQ5n  1  3.650000e-01  7.016000e+00
TDT0  Q4  1  4.300000e-01  3.970000e+00
TDT0  SQ4  1  4.100000e-01  5.002000e+00
TDT0  TQ4  1  3.650000e-01  6.609000e+00
TDT0  Q4p  1  4.300000e-01  3.540000e+00
TDT0  SQ4p  1  4.100000e-01  4.772000e+00
TDT0  TQ4p  1  3.650000e-01  6.379000e+00
TDT0  Q4n  1  4.300000e-01  4.150000e+00
TDT0  SQ4n  1  4.100000e-01  5.482000e+00
TDT0  TQ4n  1  3.650000e-01  7.139000e+00
TDT0  Q3  1  4.300000e-01  3.991000e+00
TDT0  SQ3  1  4.100000e-01  5.110000e+00
TDT0  TQ3  1  3.650000e-01  6.835000e+00
TDT0  Q3p  1  4.300000e-01  3.561000e+00
TDT0  SQ3p  1  4.100000e-01  4.880000e+00
TDT0  TQ3p  1  3.650000e-01  6.605000e+00
TDT0  Q3n  1  4.300000e-01  4.171000e+00
TDT0  SQ3n  1  4.100000e-01  5.590000e+00
TDT0  TQ3n  1  3.650000e-01  7.365000e+00
TDT0  Q2  1  4.300000e-01  4.010000e+00
TDT0  SQ2  1  4.100000e-01  5.204000e+00
TDT0  TQ2  1  3.650000e-01  7.030000e+00
TDT0  Q2p  1  4.300000e-01  3.580000e+00
TDT0  SQ2p  1  4.100000e-01  4.974000e+00
TDT0  TQ2p  1  3.650000e-01  6.800000e+00
TDT0  Q2n  1  4.300000e-01  4.190000e+00
TDT0  SQ2n  1  4.100000e-01  5.684000e+00
TDT0  TQ2n  1  3.650000e-01  7.560000e+00
TDT0  Q1  1  4.300000e-01  3.821000e+00
TDT0  SQ1  1  4.100000e-01  5.084000e+00
TDT0  TQ1  1  3.650000e-01  7.030000e+00
TDT0  Q1p  1  4.300000e-01  3.371000e+00
TDT0  SQ1p  1  4.100000e-01  4.844000e+00
TDT0  TQ1p  1  3.650000e-01  6.800000e+00
TDT0  Q1n  1  4.300000e-01  4.031000e+00
TDT0  SQ1n  1  4.100000e-01  5.554000e+00
TDT0  TQ1n  1  3.650000e-01  7.520000e+00
P6  TDT1  1  3.950000e-01  3.430000e+00
SP6  TDT1  1  3.650000e-01  3.100000e+00
TP6  TDT1  1  3.400000e-01  2.740000e+00
P5  TDT1  1  3.950000e-01  3.190000e+00
SP5  TDT1  1  3.650000e-01  2.830000e+00
TP5  TDT1  1  3.400000e-01  2.500000e+00
P4  TDT1  1  3.950000e-01  3.190000e+00
SP4  TDT1  1  3.650000e-01  2.830000e+00
TP4  TDT1  1  3.400000e-01  2.500000e+00
P3  TDT1  1  3.950000e-01  3.190000e+00
SP3  TDT1  1  3.650000e-01  2.830000e+00
TP3  TDT1  1  3.400000e-01  2.500000e+00
P2  TDT1  1  3.950000e-01  3.190000e+00
SP2  TDT1  1  3.650000e-01  2.830000e+00
TP2  TDT1  1  3.400000e-01  2.500000e+00
TDT1  P1  1  3.950000e-01  2.940000e+00
TDT1  SP1  1  3.650000e-01  2.570000e+00
TDT1  TP1  1  3.400000e-01  2.280000e+00
TDT1  N6  1  3.950000e-01  2.940000e+00
TDT1  SN6  1  3.650000e-01  2.570000e+00
TDT1  TN6  1  3.400000e-01  2.280000e+00
TDT1  N5  1  3.950000e-01  2.700000e+00
TDT1  SN5  1  3.650000e-01  2.340000e+00
TDT1  TN5  1  3.400000e-01  2.020000e+00
TDT1  N4  1  3.950000e-01  2.500000e+00
TDT1  SN4  1  3.650000e-01  2.110000e+00
TDT1  TN4  1  3.400000e-01  1.770000e+00
TDT1  N3  1  3.950000e-01  2.310000e+00
TDT1  SN3  1  3.650000e-01  1.910000e+00
TDT1  TN3  1  3.400000e-01  1.510000e+00
TDT1  N2  1  3.950000e-01  2.310000e+00
TDT1  SN2  1  3.650000e-01  1.910000e+00
TDT1  TN2  1  3.400000e-01  1.510000e+00
TDT1  N1  1  3.950000e-01  2.310000e+00
TDT1  SN1  1  3.650000e-01  1.910000e+00
TDT1  TN1  1  3.400000e-01  1.510000e+00
TDT1  C6  1  3.950000e-01  2.110000e+00
TDT1  SC6  1  3.650000e-01  1.750000e+00
TDT1  TC6  1  3.400000e-01  1.230000e+00
TDT1  C5  1  3.950000e-01  1.850000e+00
TDT1  SC5  1  3.660000e-01  1.600000e+00
TDT1  TC5  1  3.520000e-01  1.050000e+00
TDT1  C4  1  3.950000e-01  1.670000e+00
TDT1  SC4  1  3.780000e-01  1.450000e+00
TDT1  TC4  1  3.660000e-01  9.350000e-01
TDT1  C3  1  3.980000e-01  1.450000e+00
TDT1  SC3  1  3.940000e-01  1.290000e+00
TDT1  TC3  1  3.850000e-01  8.550000e-01
TDT1  C2  1  3.980000e-01  1.450000e+00
TDT1  SC2  1  3.940000e-01  1.290000e+00
TDT1  TC2  1  3.850000e-01  8.550000e-01
TDT1  C1  1  3.990000e-01  1.180000e+00
TDT1  SC1  1  4.040000e-01  1.130000e+00
TDT1  TC1  1  4.110000e-01  8.010000e-01
TDT1  X4  1  3.950000e-01  2.110000e+00
TDT1  SX4  1  3.650000e-01  1.750000e+00
TDT1  TX4  1  3.400000e-01  1.230000e+00
TDT1  X3  1  3.950000e-01  2.110000e+00
TDT1  SX3  1  3.650000e-01  1.750000e+00
TDT1  TX3  1  3.400000e-01  1.230000e+00
TDT1  X2  1  3.950000e-01  1.850000e+00
TDT1  SX2  1  3.660000e-01  1.600000e+00
TDT1  TX2  1  3.520000e-01  1.050000e+00
TDT1  X1  1  3.950000e-01  1.670000e+00
TDT1  SX1  1  3.780000e-01  1.450000e+00
TDT1  TX1  1  3.660000e-01  9.350000e-01
SP6a  TDT1  1  3.650000e-01  2.830000e+00
SP5a  TDT1  1  3.650000e-01  2.570000e+00
SP4a  TDT1  1  3.650000e-01  2.570000e+00
SP3a  TDT1  1  3.650000e-01  2.570000e+00
SP2a  TDT1  1  3.650000e-01  2.570000e+00
SP6d  TDT1  1  3.650000e-01  3.370000e+00
SP5d  TDT1  1  3.650000e-01  3.100000e+00
SP4d  TDT1  1  3.650000e-01  3.100000e+00
SP3d  TDT1  1  3.650000e-01  3.100000e+00
SP2d  TDT1  1  3.650000e-01  3.100000e+00
SP6q  TDT1  1  3.650000e-01  3.640000e+00
SP5q  TDT1  1  3.650000e-01  3.370000e+00
SP4q  TDT1  1  3.650000e-01  3.370000e+00
SP3q  TDT1  1  3.650000e-01  3.370000e+00
SP2q  TDT1  1  3.650000e-01  3.370000e+00
SP6h  TDT1  1  3.650000e-01  3.100000e+00
SP5h  TDT1  1  3.650000e-01  2.830000e+00
SP4h  TDT1  1  3.650000e-01  2.830000e+00
SP3h  TDT1  1  3.650000e-01  2.830000e+00
SP2h  TDT1  1  3.650000e-01  2.830000e+00
SP6r  TDT1  1  3.650000e-01  3.100000e+00
SP5r  TDT1  1  3.650000e-01  2.830000e+00
SP4r  TDT1  1  3.650000e-01  2.830000e+00
SP3r  TDT1  1  3.650000e-01  2.830000e+00
SP2r  TDT1  1  3.650000e-01  2.830000e+00
SP6dq  TDT1  1  3.650000e-01  3.930000e+00
SP5dq  TDT1  1  3.650000e-01  3.640000e+00
SP4dq  TDT1  1  3.650000e-01  3.640000e+00
SP3dq  TDT1  1  3.650000e-01  3.640000e+00
SP2dq  TDT1  1  3.650000e-01  3.640000e+00
SP6aq  TDT1  1  3.650000e-01  3.370000e+00
SP5aq  TDT1  1  3.650000e-01  3.100000e+00
SP4aq  TDT1  1  3.650000e-01  3.100000e+00
SP3aq  TDT1  1  3.650000e-01  3.100000e+00
SP6dh  TDT1  1  3.650000e-01  3.370000e+00
SP5dh  TDT1  1  3.650000e-01  3.100000e+00
SP4dh  TDT1  1  3.650000e-01  3.100000e+00
SP3dh  TDT1  1  3.650000e-01  3.100000e+00
SP2dh  TDT1  1  3.650000e-01  3.100000e+00
SP6ah  TDT1  1  3.650000e-01  2.830000e+00
SP5ah  TDT1  1  3.650000e-01  2.570000e+00
SP4ah  TDT1  1  3.650000e-01  2.570000e+00
SP3ah  TDT1  1  3.650000e-01  2.570000e+00
SP6dr  TDT1  1  3.650000e-01  3.370000e+00
SP5dr  TDT1  1  3.650000e-01  3.100000e+00
SP4dr  TDT1  1  3.650000e-01  3.100000e+00
SP3dr  TDT1  1  3.650000e-01  3.100000e+00
SP2dr  TDT1  1  3.650000e-01  3.100000e+00
SP6ar  TDT1  1  3.650000e-01  2.830000e+00
SP5ar  TDT1  1  3.650000e-01  2.570000e+00
SP4ar  TDT1  1  3.650000e-01  2.570000e+00
SP3ar  TDT1  1  3.650000e-01  2.570000e+00
TDT1  SP1dq  1  3.650000e-01  3.370000e+00
TDT1  SN6dq  1  3.650000e-01  3.370000e+00
TDT1  SN5dq  1  3.650000e-01  3.100000e+00
TDT1  SN4dq  1  3.650000e-01  2.830000e+00
TDT1  SN3dq  1  3.650000e-01  2.570000e+00
TDT1  SN2dq  1  3.650000e-01  2.570000e+00
TDT1  SN1dq  1  3.650000e-01  2.570000e+00
TDT1  SP2aq  1  3.650000e-01  3.100000e+00
TDT1  SX1eq  1  3.660000e-01  1.600000e+00
TDT1  SX2eq  1  3.650000e-01  1.750000e+00
TDT1  SX3eq  1  3.650000e-01  1.910000e+00
TDT1  SX4eq  1  3.650000e-01  1.910000e+00
TDT1  SC1eq  1  3.940000e-01  1.290000e+00
TDT1  SC2eq  1  3.780000e-01  1.450000e+00
TDT1  SC3eq  1  3.780000e-01  1.450000e+00
TDT1  SC4eq  1  3.660000e-01  1.600000e+00
TDT1  SC5eq  1  3.650000e-01  1.750000e+00
TDT1  SC6eq  1  3.650000e-01  1.910000e+00
TDT1  SX1vq  1  3.650000e-01  1.910000e+00
TDT1  SX2vq  1  3.650000e-01  2.110000e+00
TDT1  SX3vq  1  3.650000e-01  2.340000e+00
TDT1  SX4vq  1  3.650000e-01  2.340000e+00
TDT1  SC1vq  1  3.660000e-01  1.600000e+00
TDT1  SC2vq  1  3.650000e-01  1.750000e+00
TDT1  SC3vq  1  3.650000e-01  1.750000e+00
TDT1  SC4vq  1  3.650000e-01  1.910000e+00
TDT1  SC5vq  1  3.650000e-01  2.110000e+00
TDT1  SC6vq  1  3.650000e-01  2.340000e+00
TDT1  SN1aq  1  3.650000e-01  2.110000e+00
TDT1  SN2aq  1  3.650000e-01  2.110000e+00
TDT1  SN3aq  1  3.650000e-01  2.110000e+00
TDT1  SN4aq  1  3.650000e-01  2.340000e+00
TDT1  SN5aq  1  3.650000e-01  2.570000e+00
TDT1  SN6aq  1  3.650000e-01  2.830000e+00
TDT1  SP1aq  1  3.650000e-01  2.830000e+00
TDT1  SP1dh  1  3.650000e-01  2.830000e+00
TDT1  SN6dh  1  3.650000e-01  2.830000e+00
TDT1  SN5dh  1  3.650000e-01  2.570000e+00
TDT1  SN4dh  1  3.650000e-01  2.340000e+00
TDT1  SN3dh  1  3.650000e-01  2.110000e+00
TDT1  SN2dh  1  3.650000e-01  2.110000e+00
TDT1  SN1dh  1  3.650000e-01  2.110000e+00
TDT1  SP2ah  1  3.650000e-01  2.570000e+00
TDT1  SX1eh  1  3.940000e-01  1.290000e+00
TDT1  SX2eh  1  3.780000e-01  1.450000e+00
TDT1  SX3eh  1  3.660000e-01  1.600000e+00
TDT1  SX4eh  1  3.660000e-01  1.600000e+00
TDT1  SC1eh  1  4.090000e-01  1.080000e+00
TDT1  SC2eh  1  4.040000e-01  1.130000e+00
TDT1  SC3eh  1  4.040000e-01  1.130000e+00
TDT1  SC4eh  1  3.940000e-01  1.290000e+00
TDT1  SC5eh  1  3.780000e-01  1.450000e+00
TDT1  SC6eh  1  3.660000e-01  1.600000e+00
TDT1  SX1vh  1  3.660000e-01  1.600000e+00
TDT1  SX2vh  1  3.650000e-01  1.750000e+00
TDT1  SX3vh  1  3.650000e-01  1.910000e+00
TDT1  SX4vh  1  3.650000e-01  1.910000e+00
TDT1  SC1vh  1  3.940000e-01  1.290000e+00
TDT1  SC2vh  1  3.780000e-01  1.450000e+00
TDT1  SC3vh  1  3.780000e-01  1.450000e+00
TDT1  SC4vh  1  3.660000e-01  1.600000e+00
TDT1  SC5vh  1  3.650000e-01  1.750000e+00
TDT1  SC6vh  1  3.650000e-01  1.910000e+00
TDT1  SN1ah  1  3.650000e-01  1.750000e+00
TDT1  SN2ah  1  3.650000e-01  1.750000e+00
TDT1  SN3ah  1  3.650000e-01  1.750000e+00
TDT1  SN4ah  1  3.650000e-01  1.910000e+00
TDT1  SN5ah  1  3.650000e-01  2.110000e+00
TDT1  SN6ah  1  3.650000e-01  2.340000e+00
TDT1  SP1ah  1  3.650000e-01  2.340000e+00
TDT1  SP1dr  1  3.650000e-01  2.830000e+00
TDT1  SN6dr  1  3.650000e-01  2.830000e+00
TDT1  SN5dr  1  3.650000e-01  2.570000e+00
TDT1  SN4dr  1  3.650000e-01  2.340000e+00
TDT1  SN3dr  1  3.650000e-01  2.110000e+00
TDT1  SN2dr  1  3.650000e-01  2.110000e+00
TDT1  SN1dr  1  3.650000e-01  2.110000e+00
TDT1  SP2ar  1  3.650000e-01  2.570000e+00
TDT1  SX1er  1  3.940000e-01  1.290000e+00
TDT1  SX2er  1  3.780000e-01  1.450000e+00
TDT1  SX3er  1  3.660000e-01  1.600000e+00
TDT1  SX4er  1  3.660000e-01  1.600000e+00
TDT1  SC1er  1  4.090000e-01  1.080000e+00
TDT1  SC2er  1  4.040000e-01  1.130000e+00
TDT1  SC3er  1  4.040000e-01  1.130000e+00
TDT1  SC4er  1  3.940000e-01  1.290000e+00
TDT1  SC5er  1  3.780000e-01  1.450000e+00
TDT1  SC6er  1  3.660000e-01  1.600000e+00
TDT1  SX1vr  1  3.660000e-01  1.600000e+00
TDT1  SX2vr  1  3.650000e-01  1.750000e+00
TDT1  SX3vr  1  3.650000e-01  1.910000e+00
TDT1  SX4vr  1  3.650000e-01  1.910000e+00
TDT1  SC1vr  1  3.940000e-01  1.290000e+00
TDT1  SC2vr  1  3.780000e-01  1.450000e+00
TDT1  SC3vr  1  3.780000e-01  1.450000e+00
TDT1  SC4vr  1  3.660000e-01  1.600000e+00
TDT1  SC5vr  1  3.650000e-01  1.750000e+00
TDT1  SC6vr  1  3.650000e-01  1.910000e+00
TDT1  SN1ar  1  3.650000e-01  1.750000e+00
TDT1  SN2ar  1  3.650000e-01  1.750000e+00
TDT1  SN3ar  1  3.650000e-01  1.750000e+00
TDT1  SN4ar  1  3.650000e-01  1.910000e+00
TDT1  SN5ar  1  3.650000e-01  2.110000e+00
TDT1  SN6ar  1  3.650000e-01  2.340000e+00
TDT1  SP1ar  1  3.650000e-01  2.340000e+00
TDT1  SP1a  1  3.650000e-01  2.340000e+00
TDT1  SN6a  1  3.650000e-01  2.340000e+00
TDT1  SN5a  1  3.650000e-01  2.110000e+00
TDT1  SN4a  1  3.650000e-01  1.910000e+00
TDT1  SN3a  1  3.650000e-01  1.750000e+00
TDT1  SN2a  1  3.650000e-01  1.750000e+00
TDT1  SN1a  1  3.650000e-01  1.750000e+00
TDT1  SP1d  1  3.650000e-01  2.830000e+00
TDT1  SN6d  1  3.650000e-01  2.830000e+00
TDT1  SN5d  1  3.650000e-01  2.570000e+00
TDT1  SN4d  1  3.650000e-01  2.340000e+00
TDT1  SN3d  1  3.650000e-01  2.110000e+00
TDT1  SN2d  1  3.650000e-01  2.110000e+00
TDT1  SN1d  1  3.650000e-01  2.110000e+00
TDT1  SC6v  1  3.650000e-01  1.910000e+00
TDT1  SC5v  1  3.650000e-01  1.750000e+00
TDT1  SC4v  1  3.660000e-01  1.600000e+00
TDT1  SC3v  1  3.780000e-01  1.450000e+00
TDT1  SC2v  1  3.780000e-01  1.450000e+00
TDT1  SC1v  1  3.940000e-01  1.290000e+00
TDT1  SX4v  1  3.650000e-01  1.910000e+00
TDT1  SX3v  1  3.650000e-01  1.910000e+00
TDT1  SX2v  1  3.650000e-01  1.750000e+00
TDT1  SX1v  1  3.660000e-01  1.600000e+00
TDT1  SC6e  1  3.660000e-01  1.600000e+00
TDT1  SC5e  1  3.780000e-01  1.450000e+00
TDT1  SC4e  1  3.940000e-01  1.290000e+00
TDT1  SC3e  1  4.040000e-01  1.130000e+00
TDT1  SC2e  1  4.040000e-01  1.130000e+00
TDT1  SC1e  1  4.090000e-01  1.080000e+00
TDT1  SX4e  1  3.660000e-01  1.600000e+00
TDT1  SX3e  1  3.660000e-01  1.600000e+00
TDT1  SX2e  1  3.780000e-01  1.450000e+00
TDT1  SX1e  1  3.940000e-01  1.290000e+00
TDT1  SP1q  1  3.650000e-01  3.100000e+00
TDT1  SN6q  1  3.650000e-01  3.100000e+00
TDT1  SN5q  1  3.650000e-01  2.830000e+00
TDT1  SN4q  1  3.650000e-01  2.570000e+00
TDT1  SN3q  1  3.650000e-01  2.340000e+00
TDT1  SN2q  1  3.650000e-01  2.340000e+00
TDT1  SN1q  1  3.650000e-01  2.340000e+00
TDT1  SC6q  1  3.650000e-01  2.110000e+00
TDT1  SC5q  1  3.650000e-01  1.910000e+00
TDT1  SC4q  1  3.650000e-01  1.750000e+00
TDT1  SC3q  1  3.660000e-01  1.600000e+00
TDT1  SC2q  1  3.660000e-01  1.600000e+00
TDT1  SC1q  1  3.780000e-01  1.450000e+00
TDT1  SX4q  1  3.650000e-01  2.110000e+00
TDT1  SX3q  1  3.650000e-01  2.110000e+00
TDT1  SX2q  1  3.650000e-01  1.910000e+00
TDT1  SX1q  1  3.650000e-01  1.750000e+00
TDT1  SP1h  1  3.650000e-01  2.570000e+00
TDT1  SN6h  1  3.650000e-01  2.570000e+00
TDT1  SN5h  1  3.650000e-01  2.340000e+00
TDT1  SN4h  1  3.650000e-01  2.110000e+00
TDT1  SN3h  1  3.650000e-01  1.910000e+00
TDT1  SN2h  1  3.650000e-01  1.910000e+00
TDT1  SN1h  1  3.650000e-01  1.910000e+00
TDT1  SC6h  1  3.650000e-01  1.750000e+00
TDT1  SC5h  1  3.660000e-01  1.600000e+00
TDT1  SC4h  1  3.780000e-01  1.450000e+00
TDT1  SC3h  1  3.940000e-01  1.290000e+00
TDT1  SC2h  1  3.940000e-01  1.290000e+00
TDT1  SC1h  1  4.040000e-01  1.130000e+00
TDT1  SX4h  1  3.650000e-01  1.750000e+00
TDT1  SX3h  1  3.650000e-01  1.750000e+00
TDT1  SX2h  1  3.660000e-01  1.600000e+00
TDT1  SX1h  1  3.780000e-01  1.450000e+00
TDT1  SP1r  1  3.650000e-01  2.570000e+00
TDT1  SN6r  1  3.650000e-01  2.570000e+00
TDT1  SN5r  1  3.650000e-01  2.340000e+00
TDT1  SN4r  1  3.650000e-01  2.110000e+00
TDT1  SN3r  1  3.650000e-01  1.910000e+00
TDT1  SN2r  1  3.650000e-01  1.910000e+00
TDT1  SN1r  1  3.650000e-01  1.910000e+00
TDT1  SC6r  1  3.650000e-01  1.750000e+00
TDT1  SC5r  1  3.660000e-01  1.600000e+00
TDT1  SC4r  1  3.780000e-01  1.450000e+00
TDT1  SC3r  1  3.940000e-01  1.290000e+00
TDT1  SC2r  1  3.940000e-01  1.290000e+00
TDT1  SC1r  1  4.040000e-01  1.130000e+00
TDT1  SX4r  1  3.650000e-01  1.750000e+00
TDT1  SX3r  1  3.650000e-01  1.750000e+00
TDT1  SX2r  1  3.660000e-01  1.600000e+00
TDT1  SX1r  1  3.780000e-01  1.450000e+00
P6a  TDT1  1  3.950000e-01  3.190000e+00
P5a  TDT1  1  3.950000e-01  2.940000e+00
P4a  TDT1  1  3.950000e-01  2.940000e+00
P3a  TDT1  1  3.950000e-01  2.940000e+00
P2a  TDT1  1  3.950000e-01  2.940000e+00
P6d  TDT1  1  3.950000e-01  3.670000e+00
P5d  TDT1  1  3.950000e-01  3.430000e+00
P4d  TDT1  1  3.950000e-01  3.430000e+00
P3d  TDT1  1  3.950000e-01  3.430000e+00
P2d  TDT1  1  3.950000e-01  3.430000e+00
P6q  TDT1  1  3.950000e-01  3.910000e+00
P5q  TDT1  1  3.950000e-01  3.670000e+00
P4q  TDT1  1  3.950000e-01  3.670000e+00
P3q  TDT1  1  3.950000e-01  3.670000e+00
P2q  TDT1  1  3.950000e-01  3.670000e+00
P6dq  TDT1  1  3.950000e-01  4.230000e+00
P5dq  TDT1  1  3.950000e-01  3.910000e+00
P4dq  TDT1  1  3.950000e-01  3.910000e+00
P3dq  TDT1  1  3.950000e-01  3.910000e+00
P2dq  TDT1  1  3.950000e-01  3.910000e+00
P6aq  TDT1  1  3.950000e-01  3.670000e+00
P5aq  TDT1  1  3.950000e-01  3.430000e+00
P4aq  TDT1  1  3.950000e-01  3.430000e+00
P3aq  TDT1  1  3.950000e-01  3.430000e+00
P6h  TDT1  1  3.950000e-01  3.430000e+00
P5h  TDT1  1  3.950000e-01  3.190000e+00
P4h  TDT1  1  3.950000e-01  3.190000e+00
P3h  TDT1  1  3.950000e-01  3.190000e+00
P2h  TDT1  1  3.950000e-01  3.190000e+00
P6dh  TDT1  1  3.950000e-01  3.670000e+00
P5dh  TDT1  1  3.950000e-01  3.430000e+00
P4dh  TDT1  1  3.950000e-01  3.430000e+00
P3dh  TDT1  1  3.950000e-01  3.430000e+00
P2dh  TDT1  1  3.950000e-01  3.430000e+00
P6ah  TDT1  1  3.950000e-01  3.190000e+00
P5ah  TDT1  1  3.950000e-01  2.940000e+00
P4ah  TDT1  1  3.950000e-01  2.940000e+00
P3ah  TDT1  1  3.950000e-01  2.940000e+00
P6r  TDT1  1  3.950000e-01  3.430000e+00
P5r  TDT1  1  3.950000e-01  3.190000e+00
P4r  TDT1  1  3.950000e-01  3.190000e+00
P3r  TDT1  1  3.950000e-01  3.190000e+00
P2r  TDT1  1  3.950000e-01  3.190000e+00
P6dr  TDT1  1  3.950000e-01  3.670000e+00
P5dr  TDT1  1  3.950000e-01  3.430000e+00
P4dr  TDT1  1  3.950000e-01  3.430000e+00
P3dr  TDT1  1  3.950000e-01  3.430000e+00
P2dr  TDT1  1  3.950000e-01  3.430000e+00
P6ar  TDT1  1  3.950000e-01  3.190000e+00
P5ar  TDT1  1  3.950000e-01  2.940000e+00
P4ar  TDT1  1  3.950000e-01  2.940000e+00
P3ar  TDT1  1  3.950000e-01  2.940000e+00
TDT1  P1a  1  3.950000e-01  2.700000e+00
TDT1  N6a  1  3.950000e-01  2.700000e+00
TDT1  N5a  1  3.950000e-01  2.500000e+00
TDT1  N4a  1  3.950000e-01  2.310000e+00
TDT1  N3a  1  3.950000e-01  2.110000e+00
TDT1  N2a  1  3.950000e-01  2.110000e+00
TDT1  N1a  1  3.950000e-01  2.110000e+00
TDT1  P1d  1  3.950000e-01  3.190000e+00
TDT1  N6d  1  3.950000e-01  3.190000e+00
TDT1  N5d  1  3.950000e-01  2.940000e+00
TDT1  N4d  1  3.950000e-01  2.700000e+00
TDT1  N3d  1  3.950000e-01  2.500000e+00
TDT1  N2d  1  3.950000e-01  2.500000e+00
TDT1  N1d  1  3.950000e-01  2.500000e+00
TDT1  C6v  1  3.950000e-01  2.310000e+00
TDT1  C5v  1  3.950000e-01  2.110000e+00
TDT1  C4v  1  3.950000e-01  1.850000e+00
TDT1  C3v  1  3.950000e-01  1.670000e+00
TDT1  C2v  1  3.950000e-01  1.670000e+00
TDT1  C1v  1  3.980000e-01  1.450000e+00
TDT1  X4v  1  3.950000e-01  2.310000e+00
TDT1  X3v  1  3.950000e-01  2.310000e+00
TDT1  X2v  1  3.950000e-01  2.110000e+00
TDT1  X1v  1  3.950000e-01  1.850000e+00
TDT1  C6e  1  3.950000e-01  1.850000e+00
TDT1  C5e  1  3.950000e-01  1.670000e+00
TDT1  C4e  1  3.980000e-01  1.450000e+00
TDT1  C3e  1  3.990000e-01  1.180000e+00
TDT1  C2e  1  3.990000e-01  1.180000e+00
TDT1  C1e  1  4.010000e-01  9.830000e-01
TDT1  X4e  1  3.950000e-01  1.850000e+00
TDT1  X3e  1  3.950000e-01  1.850000e+00
TDT1  X2e  1  3.950000e-01  1.670000e+00
TDT1  X1e  1  3.980000e-01  1.450000e+00
TDT1  P1q  1  3.950000e-01  3.430000e+00
TDT1  N6q  1  3.950000e-01  3.430000e+00
TDT1  N5q  1  3.950000e-01  3.190000e+00
TDT1  N4q  1  3.950000e-01  2.940000e+00
TDT1  N3q  1  3.950000e-01  2.700000e+00
TDT1  N2q  1  3.950000e-01  2.700000e+00
TDT1  N1q  1  3.950000e-01  2.700000e+00
TDT1  C6q  1  3.950000e-01  2.500000e+00
TDT1  C5q  1  3.950000e-01  2.310000e+00
TDT1  C4q  1  3.950000e-01  2.110000e+00
TDT1  C3q  1  3.950000e-01  1.850000e+00
TDT1  C2q  1  3.950000e-01  1.850000e+00
TDT1  C1q  1  3.950000e-01  1.670000e+00
TDT1  X4q  1  3.950000e-01  2.500000e+00
TDT1  X3q  1  3.950000e-01  2.500000e+00
TDT1  X2q  1  3.950000e-01  2.310000e+00
TDT1  X1q  1  3.950000e-01  2.110000e+00
TDT1  P1dq  1  3.950000e-01  3.670000e+00
TDT1  N6dq  1  3.950000e-01  3.670000e+00
TDT1  N5dq  1  3.950000e-01  3.430000e+00
TDT1  N4dq  1  3.950000e-01  3.190000e+00
TDT1  N3dq  1  3.950000e-01  2.940000e+00
TDT1  N2dq  1  3.950000e-01  2.940000e+00
TDT1  N1dq  1  3.950000e-01  2.940000e+00
TDT1  P2aq  1  3.950000e-01  3.430000e+00
TDT1  X1eq  1  3.950000e-01  1.850000e+00
TDT1  X2eq  1  3.950000e-01  2.110000e+00
TDT1  X3eq  1  3.950000e-01  2.310000e+00
TDT1  X4eq  1  3.950000e-01  2.310000e+00
TDT1  C1eq  1  3.980000e-01  1.450000e+00
TDT1  C2eq  1  3.950000e-01  1.670000e+00
TDT1  C3eq  1  3.950000e-01  1.670000e+00
TDT1  C4eq  1  3.950000e-01  1.850000e+00
TDT1  C5eq  1  3.950000e-01  2.110000e+00
TDT1  C6eq  1  3.950000e-01  2.310000e+00
TDT1  X1vq  1  3.950000e-01  2.310000e+00
TDT1  X2vq  1  3.950000e-01  2.500000e+00
TDT1  X3vq  1  3.950000e-01  2.700000e+00
TDT1  X4vq  1  3.950000e-01  2.700000e+00
TDT1  C1vq  1  3.950000e-01  1.850000e+00
TDT1  C2vq  1  3.950000e-01  2.110000e+00
TDT1  C3vq  1  3.950000e-01  2.110000e+00
TDT1  C4vq  1  3.950000e-01  2.310000e+00
TDT1  C5vq  1  3.950000e-01  2.500000e+00
TDT1  C6vq  1  3.950000e-01  2.700000e+00
TDT1  N1aq  1  3.950000e-01  2.500000e+00
TDT1  N2aq  1  3.950000e-01  2.500000e+00
TDT1  N3aq  1  3.950000e-01  2.500000e+00
TDT1  N4aq  1  3.950000e-01  2.700000e+00
TDT1  N5aq  1  3.950000e-01  2.940000e+00
TDT1  N6aq  1  3.950000e-01  3.190000e+00
TDT1  P1aq  1  3.950000e-01  3.190000e+00
TDT1  P1h  1  3.950000e-01  2.940000e+00
TDT1  N6h  1  3.950000e-01  2.940000e+00
TDT1  N5h  1  3.950000e-01  2.700000e+00
TDT1  N4h  1  3.950000e-01  2.500000e+00
TDT1  N3h  1  3.950000e-01  2.310000e+00
TDT1  N2h  1  3.950000e-01  2.310000e+00
TDT1  N1h  1  3.950000e-01  2.310000e+00
TDT1  C6h  1  3.950000e-01  2.110000e+00
TDT1  C5h  1  3.950000e-01  1.850000e+00
TDT1  C4h  1  3.950000e-01  1.670000e+00
TDT1  C3h  1  3.980000e-01  1.450000e+00
TDT1  C2h  1  3.980000e-01  1.450000e+00
TDT1  C1h  1  3.990000e-01  1.180000e+00
TDT1  X4h  1  3.950000e-01  2.110000e+00
TDT1  X3h  1  3.950000e-01  2.110000e+00
TDT1  X2h  1  3.950000e-01  1.850000e+00
TDT1  X1h  1  3.950000e-01  1.670000e+00
TDT1  P1dh  1  3.950000e-01  3.190000e+00
TDT1  N6dh  1  3.950000e-01  3.190000e+00
TDT1  N5dh  1  3.950000e-01  2.940000e+00
TDT1  N4dh  1  3.950000e-01  2.700000e+00
TDT1  N3dh  1  3.950000e-01  2.500000e+00
TDT1  N2dh  1  3.950000e-01  2.500000e+00
TDT1  N1dh  1  3.950000e-01  2.500000e+00
TDT1  P2ah  1  3.950000e-01  2.940000e+00
TDT1  X1eh  1  3.980000e-01  1.450000e+00
TDT1  X2eh  1  3.950000e-01  1.670000e+00
TDT1  X3eh  1  3.950000e-01  1.850000e+00
TDT1  X4eh  1  3.950000e-01  1.850000e+00
TDT1  C1eh  1  4.010000e-01  9.830000e-01
TDT1  C2eh  1  3.990000e-01  1.180000e+00
TDT1  C3eh  1  3.990000e-01  1.180000e+00
TDT1  C4eh  1  3.980000e-01  1.450000e+00
TDT1  C5eh  1  3.950000e-01  1.670000e+00
TDT1  C6eh  1  3.950000e-01  1.850000e+00
TDT1  X1vh  1  3.950000e-01  1.850000e+00
TDT1  X2vh  1  3.950000e-01  2.110000e+00
TDT1  X3vh  1  3.950000e-01  2.310000e+00
TDT1  X4vh  1  3.950000e-01  2.310000e+00
TDT1  C1vh  1  3.980000e-01  1.450000e+00
TDT1  C2vh  1  3.950000e-01  1.670000e+00
TDT1  C3vh  1  3.950000e-01  1.670000e+00
TDT1  C4vh  1  3.950000e-01  1.850000e+00
TDT1  C5vh  1  3.950000e-01  2.110000e+00
TDT1  C6vh  1  3.950000e-01  2.310000e+00
TDT1  N1ah  1  3.950000e-01  2.110000e+00
TDT1  N2ah  1  3.950000e-01  2.110000e+00
TDT1  N3ah  1  3.950000e-01  2.110000e+00
TDT1  N4ah  1  3.950000e-01  2.310000e+00
TDT1  N5ah  1  3.950000e-01  2.500000e+00
TDT1  N6ah  1  3.950000e-01  2.700000e+00
TDT1  P1ah  1  3.950000e-01  2.700000e+00
TDT1  P1r  1  3.950000e-01  2.940000e+00
TDT1  N6r  1  3.950000e-01  2.940000e+00
TDT1  N5r  1  3.950000e-01  2.700000e+00
TDT1  N4r  1  3.950000e-01  2.500000e+00
TDT1  N3r  1  3.950000e-01  2.310000e+00
TDT1  N2r  1  3.950000e-01  2.310000e+00
TDT1  N1r  1  3.950000e-01  2.310000e+00
TDT1  C6r  1  3.950000e-01  2.110000e+00
TDT1  C5r  1  3.950000e-01  1.850000e+00
TDT1  C4r  1  3.950000e-01  1.670000e+00
TDT1  C3r  1  3.980000e-01  1.450000e+00
TDT1  C2r  1  3.980000e-01  1.450000e+00
TDT1  C1r  1  3.990000e-01  1.180000e+00
TDT1  X4r  1  3.950000e-01  2.110000e+00
TDT1  X3r  1  3.950000e-01  2.110000e+00
TDT1  X2r  1  3.950000e-01  1.850000e+00
TDT1  X1r  1  3.950000e-01  1.670000e+00
TDT1  P1dr  1  3.950000e-01  3.190000e+00
TDT1  N6dr  1  3.950000e-01  3.190000e+00
TDT1  N5dr  1  3.950000e-01  2.940000e+00
TDT1  N4dr  1  3.950000e-01  2.700000e+00
TDT1  N3dr  1  3.950000e-01  2.500000e+00
TDT1  N2dr  1  3.950000e-01  2.500000e+00
TDT1  N1dr  1  3.950000e-01  2.500000e+00
TDT1  P2ar  1  3.950000e-01  2.940000e+00
TDT1  X1er  1  3.980000e-01  1.450000e+00
TDT1  X2er  1  3.950000e-01  1.670000e+00
TDT1  X3er  1  3.950000e-01  1.850000e+00
TDT1  X4er  1  3.950000e-01  1.850000e+00
TDT1  C1er  1  4.010000e-01  9.830000e-01
TDT1  C2er  1  3.990000e-01  1.180000e+00
TDT1  C3er  1  3.990000e-01  1.180000e+00
TDT1  C4er  1  3.980000e-01  1.450000e+00
TDT1  C5er  1  3.950000e-01  1.670000e+00
TDT1  C6er  1  3.950000e-01  1.850000e+00
TDT1  X1vr  1  3.950000e-01  1.850000e+00
TDT1  X2vr  1  3.950000e-01  2.110000e+00
TDT1  X3vr  1  3.950000e-01  2.310000e+00
TDT1  X4vr  1  3.950000e-01  2.310000e+00
TDT1  C1vr  1  3.980000e-01  1.450000e+00
TDT1  C2vr  1  3.950000e-01  1.670000e+00
TDT1  C3vr  1  3.950000e-01  1.670000e+00
TDT1  C4vr  1  3.950000e-01  1.850000e+00
TDT1  C5vr  1  3.950000e-01  2.110000e+00
TDT1  C6vr  1  3.950000e-01  2.310000e+00
TDT1  N1ar  1  3.950000e-01  2.110000e+00
TDT1  N2ar  1  3.950000e-01  2.110000e+00
TDT1  N3ar  1  3.950000e-01  2.110000e+00
TDT1  N4ar  1  3.950000e-01  2.310000e+00
TDT1  N5ar  1  3.950000e-01  2.500000e+00
TDT1  N6ar  1  3.950000e-01  2.700000e+00
TDT1  P1ar  1  3.950000e-01  2.700000e+00
TP6d  TDT1  1  3.400000e-01  3.470000e+00
TP5d  TDT1  1  3.400000e-01  3.220000e+00
TP4d  TDT1  1  3.400000e-01  3.220000e+00
TP3d  TDT1  1  3.400000e-01  3.220000e+00
TP2d  TDT1  1  3.400000e-01  3.220000e+00
TP6dq  TDT1  1  3.400000e-01  4.020000e+00
TP5dq  TDT1  1  3.400000e-01  3.750000e+00
TP4dq  TDT1  1  3.400000e-01  3.750000e+00
TP3dq  TDT1  1  3.400000e-01  3.750000e+00
TP2dq  TDT1  1  3.400000e-01  3.750000e+00
TP6dh  TDT1  1  3.400000e-01  3.470000e+00
TP5dh  TDT1  1  3.400000e-01  3.220000e+00
TP4dh  TDT1  1  3.400000e-01  3.220000e+00
TP3dh  TDT1  1  3.400000e-01  3.220000e+00
TP2dh  TDT1  1  3.400000e-01  3.220000e+00
TP6dr  TDT1  1  3.400000e-01  3.470000e+00
TP5dr  TDT1  1  3.400000e-01  3.220000e+00
TP4dr  TDT1  1  3.400000e-01  3.220000e+00
TP3dr  TDT1  1  3.400000e-01  3.220000e+00
TP2dr  TDT1  1  3.400000e-01  3.220000e+00
TDT1  TP1d  1  3.400000e-01  2.990000e+00
TDT1  TN6d  1  3.400000e-01  2.990000e+00
TDT1  TN5d  1  3.400000e-01  2.740000e+00
TDT1  TN4d  1  3.400000e-01  2.500000e+00
TDT1  TN3d  1  3.400000e-01  2.280000e+00
TDT1  TN2d  1  3.400000e-01  2.280000e+00
TDT1  TN1d  1  3.400000e-01  2.280000e+00
TDT1  TP1dq  1  3.400000e-01  3.470000e+00
TDT1  TN6dq  1  3.400000e-01  3.470000e+00
TDT1  TN5dq  1  3.400000e-01  3.220000e+00
TDT1  TN4dq  1  3.400000e-01  2.990000e+00
TDT1  TN3dq  1  3.400000e-01  2.740000e+00
TDT1  TN2dq  1  3.400000e-01  2.740000e+00
TDT1  TN1dq  1  3.400000e-01  2.740000e+00
TDT1  TP1dh  1  3.400000e-01  2.990000e+00
TDT1  TN6dh  1  3.400000e-01  2.990000e+00
TDT1  TN5dh  1  3.400000e-01  2.740000e+00
TDT1  TN4dh  1  3.400000e-01  2.500000e+00
TDT1  TN3dh  1  3.400000e-01  2.280000e+00
TDT1  TN2dh  1  3.400000e-01  2.280000e+00
TDT1  TN1dh  1  3.400000e-01  2.280000e+00
TDT1  TP1dr  1  3.400000e-01  2.990000e+00
TDT1  TN6dr  1  3.400000e-01  2.990000e+00
TDT1  TN5dr  1  3.400000e-01  2.740000e+00
TDT1  TN4dr  1  3.400000e-01  2.500000e+00
TDT1  TN3dr  1  3.400000e-01  2.280000e+00
TDT1  TN2dr  1  3.400000e-01  2.280000e+00
TDT1  TN1dr  1  3.400000e-01  2.280000e+00
TDT1  TC6v  1  3.400000e-01  1.510000e+00
TDT1  TC5v  1  3.400000e-01  1.230000e+00
TDT1  TC4v  1  3.520000e-01  1.050000e+00
TDT1  TC3v  1  3.660000e-01  9.350000e-01
TDT1  TC2v  1  3.660000e-01  9.350000e-01
TDT1  TC1v  1  3.850000e-01  8.550000e-01
TDT1  TX4v  1  3.400000e-01  1.510000e+00
TDT1  TX3v  1  3.400000e-01  1.510000e+00
TDT1  TX2v  1  3.400000e-01  1.230000e+00
TDT1  TX1v  1  3.520000e-01  1.050000e+00
TDT1  TX1vq  1  3.400000e-01  1.510000e+00
TDT1  TX2vq  1  3.400000e-01  1.770000e+00
TDT1  TX3vq  1  3.400000e-01  2.020000e+00
TDT1  TX4vq  1  3.400000e-01  2.020000e+00
TDT1  TC1vq  1  3.520000e-01  1.050000e+00
TDT1  TC2vq  1  3.400000e-01  1.230000e+00
TDT1  TC3vq  1  3.400000e-01  1.230000e+00
TDT1  TC4vq  1  3.400000e-01  1.510000e+00
TDT1  TC5vq  1  3.400000e-01  1.770000e+00
TDT1  TC6vq  1  3.400000e-01  2.020000e+00
TDT1  TX1vh  1  3.520000e-01  1.050000e+00
TDT1  TX2vh  1  3.400000e-01  1.230000e+00
TDT1  TX3vh  1  3.400000e-01  1.510000e+00
TDT1  TX4vh  1  3.400000e-01  1.510000e+00
TDT1  TC1vh  1  3.850000e-01  8.550000e-01
TDT1  TC2vh  1  3.660000e-01  9.350000e-01
TDT1  TC3vh  1  3.660000e-01  9.350000e-01
TDT1  TC4vh  1  3.520000e-01  1.050000e+00
TDT1  TC5vh  1  3.400000e-01  1.230000e+00
TDT1  TC6vh  1  3.400000e-01  1.510000e+00
TDT1  TX1vr  1  3.520000e-01  1.050000e+00
TDT1  TX2vr  1  3.400000e-01  1.230000e+00
TDT1  TX3vr  1  3.400000e-01  1.510000e+00
TDT1  TX4vr  1  3.400000e-01  1.510000e+00
TDT1  TC1vr  1  3.850000e-01  8.550000e-01
TDT1  TC2vr  1  3.660000e-01  9.350000e-01
TDT1  TC3vr  1  3.660000e-01  9.350000e-01
TDT1  TC4vr  1  3.520000e-01  1.050000e+00
TDT1  TC5vr  1  3.400000e-01  1.230000e+00
TDT1  TC6vr  1  3.400000e-01  1.510000e+00
TDT1  TC6e  1  3.520000e-01  1.050000e+00
TDT1  TC5e  1  3.660000e-01  9.350000e-01
TDT1  TC4e  1  3.850000e-01  8.550000e-01
TDT1  TC3e  1  4.110000e-01  8.010000e-01
TDT1  TC2e  1  4.110000e-01  8.010000e-01
TDT1  TC1e  1  4.240000e-01  7.760000e-01
TDT1  TX4e  1  3.520000e-01  1.050000e+00
TDT1  TX3e  1  3.520000e-01  1.050000e+00
TDT1  TX2e  1  3.660000e-01  9.350000e-01
TDT1  TX1e  1  3.850000e-01  8.550000e-01
TDT1  TX1eq  1  3.520000e-01  1.050000e+00
TDT1  TX2eq  1  3.400000e-01  1.230000e+00
TDT1  TX3eq  1  3.400000e-01  1.510000e+00
TDT1  TX4eq  1  3.400000e-01  1.510000e+00
TDT1  TC1eq  1  3.850000e-01  8.550000e-01
TDT1  TC2eq  1  3.660000e-01  9.350000e-01
TDT1  TC3eq  1  3.660000e-01  9.350000e-01
TDT1  TC4eq  1  3.520000e-01  1.050000e+00
TDT1  TC5eq  1  3.400000e-01  1.230000e+00
TDT1  TC6eq  1  3.400000e-01  1.510000e+00
TDT1  TX1eh  1  3.850000e-01  8.550000e-01
TDT1  TX2eh  1  3.660000e-01  9.350000e-01
TDT1  TX3eh  1  3.520000e-01  1.050000e+00
TDT1  TX4eh  1  3.520000e-01  1.050000e+00
TDT1  TC1eh  1  4.240000e-01  7.760000e-01
TDT1  TC2eh  1  4.110000e-01  8.010000e-01
TDT1  TC3eh  1  4.110000e-01  8.010000e-01
TDT1  TC4eh  1  3.850000e-01  8.550000e-01
TDT1  TC5eh  1  3.660000e-01  9.350000e-01
TDT1  TC6eh  1  3.520000e-01  1.050000e+00
TDT1  TX1er  1  3.850000e-01  8.550000e-01
TDT1  TX2er  1  3.660000e-01  9.350000e-01
TDT1  TX3er  1  3.520000e-01  1.050000e+00
TDT1  TX4er  1  3.520000e-01  1.050000e+00
TDT1  TC1er  1  4.240000e-01  7.760000e-01
TDT1  TC2er  1  4.110000e-01  8.010000e-01
TDT1  TC3er  1  4.110000e-01  8.010000e-01
TDT1  TC4er  1  3.850000e-01  8.550000e-01
TDT1  TC5er  1  3.660000e-01  9.350000e-01
TDT1  TC6er  1  3.520000e-01  1.050000e+00
TDT1  TP2aq  1  3.400000e-01  2.740000e+00
TDT1  TN1aq  1  3.400000e-01  1.770000e+00
TDT1  TN2aq  1  3.400000e-01  1.770000e+00
TDT1  TN3aq  1  3.400000e-01  1.770000e+00
TDT1  TN4aq  1  3.400000e-01  2.020000e+00
TDT1  TN5aq  1  3.400000e-01  2.280000e+00
TDT1  TN6aq  1  3.400000e-01  2.500000e+00
TDT1  TP1aq  1  3.400000e-01  2.500000e+00
TDT1  TP2ah  1  3.400000e-01  2.280000e+00
TDT1  TN1ah  1  3.400000e-01  1.230000e+00
TDT1  TN2ah  1  3.400000e-01  1.230000e+00
TDT1  TN3ah  1  3.400000e-01  1.230000e+00
TDT1  TN4ah  1  3.400000e-01  1.510000e+00
TDT1  TN5ah  1  3.400000e-01  1.770000e+00
TDT1  TN6ah  1  3.400000e-01  2.020000e+00
TDT1  TP1ah  1  3.400000e-01  2.020000e+00
TDT1  TP2ar  1  3.400000e-01  2.280000e+00
TDT1  TN1ar  1  3.400000e-01  1.230000e+00
TDT1  TN2ar  1  3.400000e-01  1.230000e+00
TDT1  TN3ar  1  3.400000e-01  1.230000e+00
TDT1  TN4ar  1  3.400000e-01  1.510000e+00
TDT1  TN5ar  1  3.400000e-01  1.770000e+00
TDT1  TN6ar  1  3.400000e-01  2.020000e+00
TDT1  TP1ar  1  3.400000e-01  2.020000e+00
TP6a  TDT1  1  3.400000e-01  2.500000e+00
TP5a  TDT1  1  3.400000e-01  2.280000e+00
TP4a  TDT1  1  3.400000e-01  2.280000e+00
TP3a  TDT1  1  3.400000e-01  2.280000e+00
TDT1  TP2a  1  3.400000e-01  2.280000e+00
TDT1  TP1a  1  3.400000e-01  2.020000e+00
TDT1  TN6a  1  3.400000e-01  2.020000e+00
TDT1  TN5a  1  3.400000e-01  1.770000e+00
TDT1  TN4a  1  3.400000e-01  1.510000e+00
TDT1  TN3a  1  3.400000e-01  1.230000e+00
TDT1  TN2a  1  3.400000e-01  1.230000e+00
TDT1  TN1a  1  3.400000e-01  1.230000e+00
TP6q  TDT1  1  3.400000e-01  3.220000e+00
TP5q  TDT1  1  3.400000e-01  2.990000e+00
TP4q  TDT1  1  3.400000e-01  2.990000e+00
TP3q  TDT1  1  3.400000e-01  2.990000e+00
TP2q  TDT1  1  3.400000e-01  2.990000e+00
TDT1  TP1q  1  3.400000e-01  2.740000e+00
TDT1  TN6q  1  3.400000e-01  2.740000e+00
TDT1  TN5q  1  3.400000e-01  2.500000e+00
TDT1  TN4q  1  3.400000e-01  2.280000e+00
TDT1  TN3q  1  3.400000e-01  2.020000e+00
TDT1  TN2q  1  3.400000e-01  2.020000e+00
TDT1  TN1q  1  3.400000e-01  2.020000e+00
TDT1  TC6q  1  3.400000e-01  1.770000e+00
TDT1  TC5q  1  3.400000e-01  1.510000e+00
TDT1  TC4q  1  3.400000e-01  1.230000e+00
TDT1  TC3q  1  3.520000e-01  1.050000e+00
TDT1  TC2q  1  3.520000e-01  1.050000e+00
TDT1  TC1q  1  3.660000e-01  9.350000e-01
TDT1  TX4q  1  3.400000e-01  1.770000e+00
TDT1  TX3q  1  3.400000e-01  1.770000e+00
TDT1  TX2q  1  3.400000e-01  1.510000e+00
TDT1  TX1q  1  3.400000e-01  1.230000e+00
TP6h  TDT1  1  3.400000e-01  2.740000e+00
TP5h  TDT1  1  3.400000e-01  2.500000e+00
TP4h  TDT1  1  3.400000e-01  2.500000e+00
TP3h  TDT1  1  3.400000e-01  2.500000e+00
TP2h  TDT1  1  3.400000e-01  2.500000e+00
TDT1  TP1h  1  3.400000e-01  2.280000e+00
TDT1  TN6h  1  3.400000e-01  2.280000e+00
TDT1  TN5h  1  3.400000e-01  2.020000e+00
TDT1  TN4h  1  3.400000e-01  1.770000e+00
TDT1  TN3h  1  3.400000e-01  1.510000e+00
TDT1  TN2h  1  3.400000e-01  1.510000e+00
TDT1  TN1h  1  3.400000e-01  1.510000e+00
TDT1  TC6h  1  3.400000e-01  1.230000e+00
TDT1  TC5h  1  3.520000e-01  1.050000e+00
TDT1  TC4h  1  3.660000e-01  9.350000e-01
TDT1  TC3h  1  3.850000e-01  8.550000e-01
TDT1  TC2h  1  3.850000e-01  8.550000e-01
TDT1  TC1h  1  4.110000e-01  8.010000e-01
TDT1  TX4h  1  3.400000e-01  1.230000e+00
TDT1  TX3h  1  3.400000e-01  1.230000e+00
TDT1  TX2h  1  3.520000e-01  1.050000e+00
TDT1  TX1h  1  3.660000e-01  9.350000e-01
TP6r  TDT1  1  3.400000e-01  2.740000e+00
TP5r  TDT1  1  3.400000e-01  2.500000e+00
TP4r  TDT1  1  3.400000e-01  2.500000e+00
TP3r  TDT1  1  3.400000e-01  2.500000e+00
TP2r  TDT1  1  3.400000e-01  2.500000e+00
TDT1  TP1r  1  3.400000e-01  2.280000e+00
TDT1  TN6r  1  3.400000e-01  2.280000e+00
TDT1  TN5r  1  3.400000e-01  2.020000e+00
TDT1  TN4r  1  3.400000e-01  1.770000e+00
TDT1  TN3r  1  3.400000e-01  1.510000e+00
TDT1  TN2r  1  3.400000e-01  1.510000e+00
TDT1  TN1r  1  3.400000e-01  1.510000e+00
TDT1  TC6r  1  3.400000e-01  1.230000e+00
TDT1  TC5r  1  3.520000e-01  1.050000e+00
TDT1  TC4r  1  3.660000e-01  9.350000e-01
TDT1  TC3r  1  3.850000e-01  8.550000e-01
TDT1  TC2r  1  3.850000e-01  8.550000e-01
TDT1  TC1r  1  4.110000e-01  8.010000e-01
TDT1  TX4r  1  3.400000e-01  1.230000e+00
TDT1  TX3r  1  3.400000e-01  1.230000e+00
TDT1  TX2r  1  3.520000e-01  1.050000e+00
TDT1  TX1r  1  3.660000e-01  9.350000e-01
TP6aq  TDT1  1  3.400000e-01  2.990000e+00
TP5aq  TDT1  1  3.400000e-01  2.740000e+00
TP4aq  TDT1  1  3.400000e-01  2.740000e+00
TP3aq  TDT1  1  3.400000e-01  2.740000e+00
TP6ah  TDT1  1  3.400000e-01  2.500000e+00
TP5ah  TDT1  1  3.400000e-01  2.280000e+00
TP4ah  TDT1  1  3.400000e-01  2.280000e+00
TP3ah  TDT1  1  3.400000e-01  2.280000e+00
TP6ar  TDT1  1  3.400000e-01  2.500000e+00
TP5ar  TDT1  1  3.400000e-01  2.280000e+00
TP4ar  TDT1  1  3.400000e-01  2.280000e+00
TP3ar  TDT1  1  3.400000e-01  2.280000e+00
W  TDT1  1  3.850000e-01  3.420000e+00
SW  TDT1  1  3.750000e-01  2.720000e+00
TW  TDT1  1  3.450000e-01  2.600000e+00
TDT1  D  1  3.950000e-01  4.852000e+00
TDT1  SD  1  3.650000e-01  1.090600e+01
TDT1  TD  1  3.400000e-01  1.279400e+01
TDT1  Q5  1  3.950000e-01  4.272000e+00
TDT1  SQ5  1  3.650000e-01  5.627000e+00
TDT1  TQ5  1  3.400000e-01  7.592000e+00
TDT1  Q5p  1  3.950000e-01  4.902000e+00
TDT1  SQ5p  1  3.650000e-01  6.207000e+00
TDT1  TQ5p  1  3.400000e-01  8.392000e+00
TDT1  Q5n  1  3.950000e-01  4.032000e+00
TDT1  SQ5n  1  3.650000e-01  5.357000e+00
TDT1  TQ5n  1  3.400000e-01  7.362000e+00
TDT1  Q4  1  3.950000e-01  4.037000e+00
TDT1  SQ4  1  3.650000e-01  5.386000e+00
TDT1  TQ4  1  3.400000e-01  7.425000e+00
TDT1  Q4p  1  3.950000e-01  4.597000e+00
TDT1  SQ4p  1  3.650000e-01  5.946000e+00
TDT1  TQ4p  1  3.400000e-01  8.185000e+00
TDT1  Q4n  1  3.950000e-01  3.797000e+00
TDT1  SQ4n  1  3.650000e-01  5.116000e+00
TDT1  TQ4n  1  3.400000e-01  7.175000e+00
TDT1  Q3  1  3.950000e-01  3.815000e+00
TDT1  SQ3  1  3.650000e-01  5.213000e+00
TDT1  TQ3  1  3.400000e-01  7.389000e+00
TDT1  Q3p  1  3.950000e-01  4.295000e+00
TDT1  SQ3p  1  3.650000e-01  5.753000e+00
TDT1  TQ3p  1  3.400000e-01  8.119000e+00
TDT1  Q3n  1  3.950000e-01  3.575000e+00
TDT1  SQ3n  1  3.650000e-01  4.943000e+00
TDT1  TQ3n  1  3.400000e-01  7.149000e+00
TDT1  Q2  1  3.950000e-01  3.826000e+00
TDT1  SQ2  1  3.650000e-01  5.274000e+00
TDT1  TQ2  1  3.400000e-01  7.522000e+00
TDT1  Q2p  1  3.950000e-01  4.306000e+00
TDT1  SQ2p  1  3.650000e-01  5.814000e+00
TDT1  TQ2p  1  3.400000e-01  8.252000e+00
TDT1  Q2n  1  3.950000e-01  3.586000e+00
TDT1  SQ2n  1  3.650000e-01  5.004000e+00
TDT1  TQ2n  1  3.400000e-01  7.282000e+00
TDT1  Q1  1  3.950000e-01  3.831000e+00
TDT1  SQ1  1  3.650000e-01  5.300000e+00
TDT1  TQ1  1  3.400000e-01  7.580000e+00
TDT1  Q1p  1  3.950000e-01  4.311000e+00
TDT1  SQ1p  1  3.650000e-01  5.840000e+00
TDT1  TQ1p  1  3.400000e-01  8.310000e+00
TDT1  Q1n  1  3.950000e-01  3.591000e+00
TDT1  SQ1n  1  3.650000e-01  5.030000e+00
TDT1  TQ1n  1  3.400000e-01  7.340000e+00
P6  TDT2  1  3.950000e-01  2.500000e+00
SP6  TDT2  1  3.650000e-01  2.110000e+00
TP6  TDT2  1  3.400000e-01  1.770000e+00
P5  TDT2  1  3.950000e-01  2.500000e+00
SP5  TDT2  1  3.650000e-01  2.110000e+00
TP5  TDT2  1  3.400000e-01  1.770000e+00
P4  TDT2  1  3.950000e-01  2.500000e+00
SP4  TDT2  1  3.650000e-01  2.110000e+00
TP4  TDT2  1  3.400000e-01  1.770000e+00
P3  TDT2  1  3.950000e-01  2.500000e+00
SP3  TDT2  1  3.650000e-01  2.110000e+00
TP3  TDT2  1  3.400000e-01  1.770000e+00
P2  TDT2  1  3.950000e-01  2.700000e+00
SP2  TDT2  1  3.650000e-01  2.340000e+00
TP2  TDT2  1  3.400000e-01  2.020000e+00
P1  TDT2  1  3.950000e-01  2.700000e+00
SP1  TDT2  1  3.650000e-01  2.340000e+00
TP1  TDT2  1  3.400000e-01  2.020000e+00
N6  TDT2  1  3.950000e-01  2.940000e+00
SN6  TDT2  1  3.650000e-01  2.570000e+00
TN6  TDT2  1  3.400000e-01  2.280000e+00
N5  TDT2  1  3.950000e-01  2.700000e+00
SN5  TDT2  1  3.650000e-01  2.340000e+00
TN5  TDT2  1  3.400000e-01  2.020000e+00
TDT2  N4  1  3.950000e-01  2.700000e+00
TDT2  SN4  1  3.650000e-01  2.340000e+00
TDT2  TN4  1  3.400000e-01  2.020000e+00
TDT2  N3  1  3.950000e-01  2.500000e+00
TDT2  SN3  1  3.650000e-01  2.110000e+00
TDT2  TN3  1  3.400000e-01  1.770000e+00
TDT2  N2  1  3.950000e-01  2.500000e+00
TDT2  SN2  1  3.650000e-01  2.110000e+00
TDT2  TN2  1  3.400000e-01  1.770000e+00
TDT2  N1  1  3.950000e-01  2.310000e+00
TDT2  SN1  1  3.650000e-01  1.910000e+00
TDT2  TN1  1  3.400000e-01  1.510000e+00
TDT2  C6  1  3.950000e-01  2.310000e+00
TDT2  SC6  1  3.650000e-01  1.910000e+00
TDT2  TC6  1  3.400000e-01  1.510000e+00
TDT2  C5  1  3.950000e-01  2.110000e+00
TDT2  SC5  1  3.650000e-01  1.750000e+00
TDT2  TC5  1  3.400000e-01  1.230000e+00
TDT2  C4  1  3.950000e-01  1.850000e+00
TDT2  SC4  1  3.660000e-01  1.600000e+00
TDT2  TC4  1  3.520000e-01  1.050000e+00
TDT2  C3  1  3.950000e-01  1.850000e+00
TDT2  SC3  1  3.660000e-01  1.600000e+00
TDT2  TC3  1  3.520000e-01  1.050000e+00
TDT2  C2  1  3.950000e-01  1.670000e+00
TDT2  SC2  1  3.780000e-01  1.450000e+00
TDT2  TC2  1  3.660000e-01  9.350000e-01
TDT2  C1  1  3.980000e-01  1.450000e+00
TDT2  SC1  1  3.940000e-01  1.290000e+00
TDT2  TC1  1  3.850000e-01  8.550000e-01
TDT2  X4  1  3.950000e-01  2.500000e+00
TDT2  SX4  1  3.650000e-01  2.110000e+00
TDT2  TX4  1  3.400000e-01  1.770000e+00
TDT2  X3  1  3.950000e-01  2.310000e+00
TDT2  SX3  1  3.650000e-01  1.910000e+00
TDT2  TX3  1  3.400000e-01  1.510000e+00
TDT2  X2  1  3.950000e-01  2.110000e+00
TDT2  SX2  1  3.650000e-01  1.750000e+00
TDT2  TX2  1  3.400000e-01  1.230000e+00
TDT2  X1  1  3.950000e-01  1.850000e+00
TDT2  SX1  1  3.660000e-01  1.600000e+00
TDT2  TX1  1  3.520000e-01  1.050000e+00
SP6d  TDT2  1  3.650000e-01  1.910000e+00
SP5d  TDT2  1  3.650000e-01  1.910000e+00
SP4d  TDT2  1  3.650000e-01  1.910000e+00
SP3d  TDT2  1  3.650000e-01  1.910000e+00
SP2d  TDT2  1  3.650000e-01  2.110000e+00
SP1d  TDT2  1  3.650000e-01  2.110000e+00
SN6d  TDT2  1  3.650000e-01  2.340000e+00
SN5d  TDT2  1  3.650000e-01  2.110000e+00
SP6a  TDT2  1  3.650000e-01  2.340000e+00
SP5a  TDT2  1  3.650000e-01  2.340000e+00
SP4a  TDT2  1  3.650000e-01  2.340000e+00
SP3a  TDT2  1  3.650000e-01  2.340000e+00
SP2a  TDT2  1  3.650000e-01  2.570000e+00
SP1a  TDT2  1  3.650000e-01  2.570000e+00
SN6a  TDT2  1  3.650000e-01  2.830000e+00
SP6q  TDT2  1  3.650000e-01  2.570000e+00
SP5q  TDT2  1  3.650000e-01  2.570000e+00
SP4q  TDT2  1  3.650000e-01  2.570000e+00
SP3q  TDT2  1  3.650000e-01  2.570000e+00
SP2q  TDT2  1  3.650000e-01  2.830000e+00
SP1q  TDT2  1  3.650000e-01  2.830000e+00
SN6q  TDT2  1  3.650000e-01  3.100000e+00
SN5q  TDT2  1  3.650000e-01  2.830000e+00
SP6h  TDT2  1  3.650000e-01  2.110000e+00
SP5h  TDT2  1  3.650000e-01  2.110000e+00
SP4h  TDT2  1  3.650000e-01  2.110000e+00
SP3h  TDT2  1  3.650000e-01  2.110000e+00
SP2h  TDT2  1  3.650000e-01  2.340000e+00
SP1h  TDT2  1  3.650000e-01  2.340000e+00
SN6h  TDT2  1  3.650000e-01  2.570000e+00
SN5h  TDT2  1  3.650000e-01  2.340000e+00
SP6r  TDT2  1  3.650000e-01  2.110000e+00
SP5r  TDT2  1  3.650000e-01  2.110000e+00
SP4r  TDT2  1  3.650000e-01  2.110000e+00
SP3r  TDT2  1  3.650000e-01  2.110000e+00
SP2r  TDT2  1  3.650000e-01  2.340000e+00
SP1r  TDT2  1  3.650000e-01  2.340000e+00
SN6r  TDT2  1  3.650000e-01  2.570000e+00
SN5r  TDT2  1  3.650000e-01  2.340000e+00
SP6dq  TDT2  1  3.650000e-01  2.340000e+00
SP5dq  TDT2  1  3.650000e-01  2.340000e+00
SP4dq  TDT2  1  3.650000e-01  2.340000e+00
SP3dq  TDT2  1  3.650000e-01  2.340000e+00
SP2dq  TDT2  1  3.650000e-01  2.570000e+00
SP1dq  TDT2  1  3.650000e-01  2.570000e+00
SN6dq  TDT2  1  3.650000e-01  2.830000e+00
SN6aq  TDT2  1  3.650000e-01  3.370000e+00
SP1aq  TDT2  1  3.650000e-01  3.100000e+00
SP2aq  TDT2  1  3.650000e-01  3.100000e+00
SP3aq  TDT2  1  3.650000e-01  2.830000e+00
SP4aq  TDT2  1  3.650000e-01  2.830000e+00
SP5aq  TDT2  1  3.650000e-01  2.830000e+00
SP6aq  TDT2  1  3.650000e-01  2.830000e+00
SP6dh  TDT2  1  3.650000e-01  1.910000e+00
SP5dh  TDT2  1  3.650000e-01  1.910000e+00
SP4dh  TDT2  1  3.650000e-01  1.910000e+00
SP3dh  TDT2  1  3.650000e-01  1.910000e+00
SP2dh  TDT2  1  3.650000e-01  2.110000e+00
SP1dh  TDT2  1  3.650000e-01  2.110000e+00
SN6dh  TDT2  1  3.650000e-01  2.340000e+00
SN6ah  TDT2  1  3.650000e-01  2.830000e+00
SP1ah  TDT2  1  3.650000e-01  2.570000e+00
SP2ah  TDT2  1  3.650000e-01  2.570000e+00
SP3ah  TDT2  1  3.650000e-01  2.340000e+00
SP4ah  TDT2  1  3.650000e-01  2.340000e+00
SP5ah  TDT2  1  3.650000e-01  2.340000e+00
SP6ah  TDT2  1  3.650000e-01  2.340000e+00
SP6dr  TDT2  1  3.650000e-01  1.910000e+00
SP5dr  TDT2  1  3.650000e-01  1.910000e+00
SP4dr  TDT2  1  3.650000e-01  1.910000e+00
SP3dr  TDT2  1  3.650000e-01  1.910000e+00
SP2dr  TDT2  1  3.650000e-01  2.110000e+00
SP1dr  TDT2  1  3.650000e-01  2.110000e+00
SN6dr  TDT2  1  3.650000e-01  2.340000e+00
SN6ar  TDT2  1  3.650000e-01  2.830000e+00
SP1ar  TDT2  1  3.650000e-01  2.570000e+00
SP2ar  TDT2  1  3.650000e-01  2.570000e+00
SP3ar  TDT2  1  3.650000e-01  2.340000e+00
SP4ar  TDT2  1  3.650000e-01  2.340000e+00
SP5ar  TDT2  1  3.650000e-01  2.340000e+00
SP6ar  TDT2  1  3.650000e-01  2.340000e+00
TDT2  SN5dq  1  3.650000e-01  2.570000e+00
TDT2  SX1eq  1  3.650000e-01  2.110000e+00
TDT2  SX2eq  1  3.650000e-01  2.340000e+00
TDT2  SX3eq  1  3.650000e-01  2.570000e+00
TDT2  SX4eq  1  3.650000e-01  2.830000e+00
TDT2  SC1eq  1  3.650000e-01  1.750000e+00
TDT2  SC2eq  1  3.650000e-01  1.910000e+00
TDT2  SC3eq  1  3.650000e-01  2.110000e+00
TDT2  SC4eq  1  3.650000e-01  2.110000e+00
TDT2  SC5eq  1  3.650000e-01  2.340000e+00
TDT2  SC6eq  1  3.650000e-01  2.570000e+00
TDT2  SX1vq  1  3.650000e-01  1.750000e+00
TDT2  SX2vq  1  3.650000e-01  1.910000e+00
TDT2  SX3vq  1  3.650000e-01  2.110000e+00
TDT2  SX4vq  1  3.650000e-01  2.340000e+00
TDT2  SC1vq  1  3.780000e-01  1.450000e+00
TDT2  SC2vq  1  3.660000e-01  1.600000e+00
TDT2  SC3vq  1  3.650000e-01  1.750000e+00
TDT2  SC4vq  1  3.650000e-01  1.750000e+00
TDT2  SC5vq  1  3.650000e-01  1.910000e+00
TDT2  SC6vq  1  3.650000e-01  2.110000e+00
TDT2  SN1aq  1  3.650000e-01  2.570000e+00
TDT2  SN2aq  1  3.650000e-01  2.830000e+00
TDT2  SN3aq  1  3.650000e-01  2.830000e+00
TDT2  SN4aq  1  3.650000e-01  3.100000e+00
TDT2  SN5aq  1  3.650000e-01  3.100000e+00
TDT2  SN1dq  1  3.650000e-01  2.110000e+00
TDT2  SN2dq  1  3.650000e-01  2.340000e+00
TDT2  SN3dq  1  3.650000e-01  2.340000e+00
TDT2  SN4dq  1  3.650000e-01  2.570000e+00
TDT2  SN5dh  1  3.650000e-01  2.110000e+00
TDT2  SX1eh  1  3.650000e-01  1.750000e+00
TDT2  SX2eh  1  3.650000e-01  1.910000e+00
TDT2  SX3eh  1  3.650000e-01  2.110000e+00
TDT2  SX4eh  1  3.650000e-01  2.340000e+00
TDT2  SC1eh  1  3.780000e-01  1.450000e+00
TDT2  SC2eh  1  3.660000e-01  1.600000e+00
TDT2  SC3eh  1  3.650000e-01  1.750000e+00
TDT2  SC4eh  1  3.650000e-01  1.750000e+00
TDT2  SC5eh  1  3.650000e-01  1.910000e+00
TDT2  SC6eh  1  3.650000e-01  2.110000e+00
TDT2  SX1vh  1  3.780000e-01  1.450000e+00
TDT2  SX2vh  1  3.660000e-01  1.600000e+00
TDT2  SX3vh  1  3.650000e-01  1.750000e+00
TDT2  SX4vh  1  3.650000e-01  1.910000e+00
TDT2  SC1vh  1  4.040000e-01  1.130000e+00
TDT2  SC2vh  1  3.940000e-01  1.290000e+00
TDT2  SC3vh  1  3.780000e-01  1.450000e+00
TDT2  SC4vh  1  3.780000e-01  1.450000e+00
TDT2  SC5vh  1  3.660000e-01  1.600000e+00
TDT2  SC6vh  1  3.650000e-01  1.750000e+00
TDT2  SN1ah  1  3.650000e-01  2.110000e+00
TDT2  SN2ah  1  3.650000e-01  2.340000e+00
TDT2  SN3ah  1  3.650000e-01  2.340000e+00
TDT2  SN4ah  1  3.650000e-01  2.570000e+00
TDT2  SN5ah  1  3.650000e-01  2.570000e+00
TDT2  SN1dh  1  3.650000e-01  1.750000e+00
TDT2  SN2dh  1  3.650000e-01  1.910000e+00
TDT2  SN3dh  1  3.650000e-01  1.910000e+00
TDT2  SN4dh  1  3.650000e-01  2.110000e+00
TDT2  SN5dr  1  3.650000e-01  2.110000e+00
TDT2  SX1er  1  3.650000e-01  1.750000e+00
TDT2  SX2er  1  3.650000e-01  1.910000e+00
TDT2  SX3er  1  3.650000e-01  2.110000e+00
TDT2  SX4er  1  3.650000e-01  2.340000e+00
TDT2  SC1er  1  3.780000e-01  1.450000e+00
TDT2  SC2er  1  3.660000e-01  1.600000e+00
TDT2  SC3er  1  3.650000e-01  1.750000e+00
TDT2  SC4er  1  3.650000e-01  1.750000e+00
TDT2  SC5er  1  3.650000e-01  1.910000e+00
TDT2  SC6er  1  3.650000e-01  2.110000e+00
TDT2  SX1vr  1  3.780000e-01  1.450000e+00
TDT2  SX2vr  1  3.660000e-01  1.600000e+00
TDT2  SX3vr  1  3.650000e-01  1.750000e+00
TDT2  SX4vr  1  3.650000e-01  1.910000e+00
TDT2  SC1vr  1  4.040000e-01  1.130000e+00
TDT2  SC2vr  1  3.940000e-01  1.290000e+00
TDT2  SC3vr  1  3.780000e-01  1.450000e+00
TDT2  SC4vr  1  3.780000e-01  1.450000e+00
TDT2  SC5vr  1  3.660000e-01  1.600000e+00
TDT2  SC6vr  1  3.650000e-01  1.750000e+00
TDT2  SN1ar  1  3.650000e-01  2.110000e+00
TDT2  SN2ar  1  3.650000e-01  2.340000e+00
TDT2  SN3ar  1  3.650000e-01  2.340000e+00
TDT2  SN4ar  1  3.650000e-01  2.570000e+00
TDT2  SN5ar  1  3.650000e-01  2.570000e+00
TDT2  SN1dr  1  3.650000e-01  1.750000e+00
TDT2  SN2dr  1  3.650000e-01  1.910000e+00
TDT2  SN3dr  1  3.650000e-01  1.910000e+00
TDT2  SN4dr  1  3.650000e-01  2.110000e+00
TDT2  SN4d  1  3.650000e-01  2.110000e+00
TDT2  SN3d  1  3.650000e-01  1.910000e+00
TDT2  SN2d  1  3.650000e-01  1.910000e+00
TDT2  SN1d  1  3.650000e-01  1.750000e+00
TDT2  SN5a  1  3.650000e-01  2.570000e+00
TDT2  SN4a  1  3.650000e-01  2.570000e+00
TDT2  SN3a  1  3.650000e-01  2.340000e+00
TDT2  SN2a  1  3.650000e-01  2.340000e+00
TDT2  SN1a  1  3.650000e-01  2.110000e+00
TDT2  SC6e  1  3.650000e-01  2.110000e+00
TDT2  SC5e  1  3.650000e-01  1.910000e+00
TDT2  SC4e  1  3.650000e-01  1.750000e+00
TDT2  SC3e  1  3.650000e-01  1.750000e+00
TDT2  SC2e  1  3.660000e-01  1.600000e+00
TDT2  SC1e  1  3.780000e-01  1.450000e+00
TDT2  SX4e  1  3.650000e-01  2.340000e+00
TDT2  SX3e  1  3.650000e-01  2.110000e+00
TDT2  SX2e  1  3.650000e-01  1.910000e+00
TDT2  SX1e  1  3.650000e-01  1.750000e+00
TDT2  SC6v  1  3.650000e-01  1.750000e+00
TDT2  SC5v  1  3.660000e-01  1.600000e+00
TDT2  SC4v  1  3.780000e-01  1.450000e+00
TDT2  SC3v  1  3.780000e-01  1.450000e+00
TDT2  SC2v  1  3.940000e-01  1.290000e+00
TDT2  SC1v  1  4.040000e-01  1.130000e+00
TDT2  SX4v  1  3.650000e-01  1.910000e+00
TDT2  SX3v  1  3.650000e-01  1.750000e+00
TDT2  SX2v  1  3.660000e-01  1.600000e+00
TDT2  SX1v  1  3.780000e-01  1.450000e+00
TDT2  SN4q  1  3.650000e-01  2.830000e+00
TDT2  SN3q  1  3.650000e-01  2.570000e+00
TDT2  SN2q  1  3.650000e-01  2.570000e+00
TDT2  SN1q  1  3.650000e-01  2.340000e+00
TDT2  SC6q  1  3.650000e-01  2.340000e+00
TDT2  SC5q  1  3.650000e-01  2.110000e+00
TDT2  SC4q  1  3.650000e-01  1.910000e+00
TDT2  SC3q  1  3.650000e-01  1.910000e+00
TDT2  SC2q  1  3.650000e-01  1.750000e+00
TDT2  SC1q  1  3.660000e-01  1.600000e+00
TDT2  SX4q  1  3.650000e-01  2.570000e+00
TDT2  SX3q  1  3.650000e-01  2.340000e+00
TDT2  SX2q  1  3.650000e-01  2.110000e+00
TDT2  SX1q  1  3.650000e-01  1.910000e+00
TDT2  SN4h  1  3.650000e-01  2.340000e+00
TDT2  SN3h  1  3.650000e-01  2.110000e+00
TDT2  SN2h  1  3.650000e-01  2.110000e+00
TDT2  SN1h  1  3.650000e-01  1.910000e+00
TDT2  SC6h  1  3.650000e-01  1.910000e+00
TDT2  SC5h  1  3.650000e-01  1.750000e+00
TDT2  SC4h  1  3.660000e-01  1.600000e+00
TDT2  SC3h  1  3.660000e-01  1.600000e+00
TDT2  SC2h  1  3.780000e-01  1.450000e+00
TDT2  SC1h  1  3.940000e-01  1.290000e+00
TDT2  SX4h  1  3.650000e-01  2.110000e+00
TDT2  SX3h  1  3.650000e-01  1.910000e+00
TDT2  SX2h  1  3.650000e-01  1.750000e+00
TDT2  SX1h  1  3.660000e-01  1.600000e+00
TDT2  SN4r  1  3.650000e-01  2.340000e+00
TDT2  SN3r  1  3.650000e-01  2.110000e+00
TDT2  SN2r  1  3.650000e-01  2.110000e+00
TDT2  SN1r  1  3.650000e-01  1.910000e+00
TDT2  SC6r  1  3.650000e-01  1.910000e+00
TDT2  SC5r  1  3.650000e-01  1.750000e+00
TDT2  SC4r  1  3.660000e-01  1.600000e+00
TDT2  SC3r  1  3.660000e-01  1.600000e+00
TDT2  SC2r  1  3.780000e-01  1.450000e+00
TDT2  SC1r  1  3.940000e-01  1.290000e+00
TDT2  SX4r  1  3.650000e-01  2.110000e+00
TDT2  SX3r  1  3.650000e-01  1.910000e+00
TDT2  SX2r  1  3.650000e-01  1.750000e+00
TDT2  SX1r  1  3.660000e-01  1.600000e+00
P6d  TDT2  1  3.950000e-01  2.310000e+00
P5d  TDT2  1  3.950000e-01  2.310000e+00
P4d  TDT2  1  3.950000e-01  2.310000e+00
P3d  TDT2  1  3.950000e-01  2.310000e+00
P2d  TDT2  1  3.950000e-01  2.500000e+00
P1d  TDT2  1  3.950000e-01  2.500000e+00
N6d  TDT2  1  3.950000e-01  2.700000e+00
N5d  TDT2  1  3.950000e-01  2.500000e+00
P6a  TDT2  1  3.950000e-01  2.700000e+00
P5a  TDT2  1  3.950000e-01  2.700000e+00
P4a  TDT2  1  3.950000e-01  2.700000e+00
P3a  TDT2  1  3.950000e-01  2.700000e+00
P2a  TDT2  1  3.950000e-01  2.940000e+00
P1a  TDT2  1  3.950000e-01  2.940000e+00
N6a  TDT2  1  3.950000e-01  3.190000e+00
P6q  TDT2  1  3.950000e-01  2.940000e+00
P5q  TDT2  1  3.950000e-01  2.940000e+00
P4q  TDT2  1  3.950000e-01  2.940000e+00
P3q  TDT2  1  3.950000e-01  2.940000e+00
P2q  TDT2  1  3.950000e-01  3.190000e+00
P1q  TDT2  1  3.950000e-01  3.190000e+00
N6q  TDT2  1  3.950000e-01  3.430000e+00
N5q  TDT2  1  3.950000e-01  3.190000e+00
P6dq  TDT2  1  3.950000e-01  2.700000e+00
P5dq  TDT2  1  3.950000e-01  2.700000e+00
P4dq  TDT2  1  3.950000e-01  2.700000e+00
P3dq  TDT2  1  3.950000e-01  2.700000e+00
P2dq  TDT2  1  3.950000e-01  2.940000e+00
P1dq  TDT2  1  3.950000e-01  2.940000e+00
N6dq  TDT2  1  3.950000e-01  3.190000e+00
N6aq  TDT2  1  3.950000e-01  3.670000e+00
P1aq  TDT2  1  3.950000e-01  3.430000e+00
P2aq  TDT2  1  3.950000e-01  3.430000e+00
P3aq  TDT2  1  3.950000e-01  3.190000e+00
P4aq  TDT2  1  3.950000e-01  3.190000e+00
P5aq  TDT2  1  3.950000e-01  3.190000e+00
P6aq  TDT2  1  3.950000e-01  3.190000e+00
P6h  TDT2  1  3.950000e-01  2.500000e+00
P5h  TDT2  1  3.950000e-01  2.500000e+00
P4h  TDT2  1  3.950000e-01  2.500000e+00
P3h  TDT2  1  3.950000e-01  2.500000e+00
P2h  TDT2  1  3.950000e-01  2.700000e+00
P1h  TDT2  1  3.950000e-01  2.700000e+00
N6h  TDT2  1  3.950000e-01  2.940000e+00
N5h  TDT2  1  3.950000e-01  2.700000e+00
P6dh  TDT2  1  3.950000e-01  2.310000e+00
P5dh  TDT2  1  3.950000e-01  2.310000e+00
P4dh  TDT2  1  3.950000e-01  2.310000e+00
P3dh  TDT2  1  3.950000e-01  2.310000e+00
P2dh  TDT2  1  3.950000e-01  2.500000e+00
P1dh  TDT2  1  3.950000e-01  2.500000e+00
N6dh  TDT2  1  3.950000e-01  2.700000e+00
N6ah  TDT2  1  3.950000e-01  3.190000e+00
P1ah  TDT2  1  3.950000e-01  2.940000e+00
P2ah  TDT2  1  3.950000e-01  2.940000e+00
P3ah  TDT2  1  3.950000e-01  2.700000e+00
P4ah  TDT2  1  3.950000e-01  2.700000e+00
P5ah  TDT2  1  3.950000e-01  2.700000e+00
P6ah  TDT2  1  3.950000e-01  2.700000e+00
P6r  TDT2  1  3.950000e-01  2.500000e+00
P5r  TDT2  1  3.950000e-01  2.500000e+00
P4r  TDT2  1  3.950000e-01  2.500000e+00
P3r  TDT2  1  3.950000e-01  2.500000e+00
P2r  TDT2  1  3.950000e-01  2.700000e+00
P1r  TDT2  1  3.950000e-01  2.700000e+00
N6r  TDT2  1  3.950000e-01  2.940000e+00
N5r  TDT2  1  3.950000e-01  2.700000e+00
P6dr  TDT2  1  3.950000e-01  2.310000e+00
P5dr  TDT2  1  3.950000e-01  2.310000e+00
P4dr  TDT2  1  3.950000e-01  2.310000e+00
P3dr  TDT2  1  3.950000e-01  2.310000e+00
P2dr  TDT2  1  3.950000e-01  2.500000e+00
P1dr  TDT2  1  3.950000e-01  2.500000e+00
N6dr  TDT2  1  3.950000e-01  2.700000e+00
N6ar  TDT2  1  3.950000e-01  3.190000e+00
P1ar  TDT2  1  3.950000e-01  2.940000e+00
P2ar  TDT2  1  3.950000e-01  2.940000e+00
P3ar  TDT2  1  3.950000e-01  2.700000e+00
P4ar  TDT2  1  3.950000e-01  2.700000e+00
P5ar  TDT2  1  3.950000e-01  2.700000e+00
P6ar  TDT2  1  3.950000e-01  2.700000e+00
TDT2  N4d  1  3.950000e-01  2.500000e+00
TDT2  N3d  1  3.950000e-01  2.310000e+00
TDT2  N2d  1  3.950000e-01  2.310000e+00
TDT2  N1d  1  3.950000e-01  2.110000e+00
TDT2  N5a  1  3.950000e-01  2.940000e+00
TDT2  N4a  1  3.950000e-01  2.940000e+00
TDT2  N3a  1  3.950000e-01  2.700000e+00
TDT2  N2a  1  3.950000e-01  2.700000e+00
TDT2  N1a  1  3.950000e-01  2.500000e+00
TDT2  C6e  1  3.950000e-01  2.500000e+00
TDT2  C5e  1  3.950000e-01  2.310000e+00
TDT2  C4e  1  3.950000e-01  2.110000e+00
TDT2  C3e  1  3.950000e-01  2.110000e+00
TDT2  C2e  1  3.950000e-01  1.850000e+00
TDT2  C1e  1  3.950000e-01  1.670000e+00
TDT2  X4e  1  3.950000e-01  2.700000e+00
TDT2  X3e  1  3.950000e-01  2.500000e+00
TDT2  X2e  1  3.950000e-01  2.310000e+00
TDT2  X1e  1  3.950000e-01  2.110000e+00
TDT2  C6v  1  3.950000e-01  2.110000e+00
TDT2  C5v  1  3.950000e-01  1.850000e+00
TDT2  C4v  1  3.950000e-01  1.670000e+00
TDT2  C3v  1  3.950000e-01  1.670000e+00
TDT2  C2v  1  3.980000e-01  1.450000e+00
TDT2  C1v  1  3.990000e-01  1.180000e+00
TDT2  X4v  1  3.950000e-01  2.310000e+00
TDT2  X3v  1  3.950000e-01  2.110000e+00
TDT2  X2v  1  3.950000e-01  1.850000e+00
TDT2  X1v  1  3.950000e-01  1.670000e+00
TDT2  N4q  1  3.950000e-01  3.190000e+00
TDT2  N3q  1  3.950000e-01  2.940000e+00
TDT2  N2q  1  3.950000e-01  2.940000e+00
TDT2  N1q  1  3.950000e-01  2.700000e+00
TDT2  C6q  1  3.950000e-01  2.700000e+00
TDT2  C5q  1  3.950000e-01  2.500000e+00
TDT2  C4q  1  3.950000e-01  2.310000e+00
TDT2  C3q  1  3.950000e-01  2.310000e+00
TDT2  C2q  1  3.950000e-01  2.110000e+00
TDT2  C1q  1  3.950000e-01  1.850000e+00
TDT2  X4q  1  3.950000e-01  2.940000e+00
TDT2  X3q  1  3.950000e-01  2.700000e+00
TDT2  X2q  1  3.950000e-01  2.500000e+00
TDT2  X1q  1  3.950000e-01  2.310000e+00
TDT2  N5dq  1  3.950000e-01  2.940000e+00
TDT2  X1eq  1  3.950000e-01  2.500000e+00
TDT2  X2eq  1  3.950000e-01  2.700000e+00
TDT2  X3eq  1  3.950000e-01  2.940000e+00
TDT2  X4eq  1  3.950000e-01  3.190000e+00
TDT2  C1eq  1  3.950000e-01  2.110000e+00
TDT2  C2eq  1  3.950000e-01  2.310000e+00
TDT2  C3eq  1  3.950000e-01  2.500000e+00
TDT2  C4eq  1  3.950000e-01  2.500000e+00
TDT2  C5eq  1  3.950000e-01  2.700000e+00
TDT2  C6eq  1  3.950000e-01  2.940000e+00
TDT2  X1vq  1  3.950000e-01  2.110000e+00
TDT2  X2vq  1  3.950000e-01  2.310000e+00
TDT2  X3vq  1  3.950000e-01  2.500000e+00
TDT2  X4vq  1  3.950000e-01  2.700000e+00
TDT2  C1vq  1  3.950000e-01  1.670000e+00
TDT2  C2vq  1  3.950000e-01  1.850000e+00
TDT2  C3vq  1  3.950000e-01  2.110000e+00
TDT2  C4vq  1  3.950000e-01  2.110000e+00
TDT2  C5vq  1  3.950000e-01  2.310000e+00
TDT2  C6vq  1  3.950000e-01  2.500000e+00
TDT2  N1aq  1  3.950000e-01  2.940000e+00
TDT2  N2aq  1  3.950000e-01  3.190000e+00
TDT2  N3aq  1  3.950000e-01  3.190000e+00
TDT2  N4aq  1  3.950000e-01  3.430000e+00
TDT2  N5aq  1  3.950000e-01  3.430000e+00
TDT2  N1dq  1  3.950000e-01  2.500000e+00
TDT2  N2dq  1  3.950000e-01  2.700000e+00
TDT2  N3dq  1  3.950000e-01  2.700000e+00
TDT2  N4dq  1  3.950000e-01  2.940000e+00
TDT2  N4h  1  3.950000e-01  2.700000e+00
TDT2  N3h  1  3.950000e-01  2.500000e+00
TDT2  N2h  1  3.950000e-01  2.500000e+00
TDT2  N1h  1  3.950000e-01  2.310000e+00
TDT2  C6h  1  3.950000e-01  2.310000e+00
TDT2  C5h  1  3.950000e-01  2.110000e+00
TDT2  C4h  1  3.950000e-01  1.850000e+00
TDT2  C3h  1  3.950000e-01  1.850000e+00
TDT2  C2h  1  3.950000e-01  1.670000e+00
TDT2  C1h  1  3.980000e-01  1.450000e+00
TDT2  X4h  1  3.950000e-01  2.500000e+00
TDT2  X3h  1  3.950000e-01  2.310000e+00
TDT2  X2h  1  3.950000e-01  2.110000e+00
TDT2  X1h  1  3.950000e-01  1.850000e+00
TDT2  N5dh  1  3.950000e-01  2.500000e+00
TDT2  X1eh  1  3.950000e-01  2.110000e+00
TDT2  X2eh  1  3.950000e-01  2.310000e+00
TDT2  X3eh  1  3.950000e-01  2.500000e+00
TDT2  X4eh  1  3.950000e-01  2.700000e+00
TDT2  C1eh  1  3.950000e-01  1.670000e+00
TDT2  C2eh  1  3.950000e-01  1.850000e+00
TDT2  C3eh  1  3.950000e-01  2.110000e+00
TDT2  C4eh  1  3.950000e-01  2.110000e+00
TDT2  C5eh  1  3.950000e-01  2.310000e+00
TDT2  C6eh  1  3.950000e-01  2.500000e+00
TDT2  X1vh  1  3.950000e-01  1.670000e+00
TDT2  X2vh  1  3.950000e-01  1.850000e+00
TDT2  X3vh  1  3.950000e-01  2.110000e+00
TDT2  X4vh  1  3.950000e-01  2.310000e+00
TDT2  C1vh  1  3.990000e-01  1.180000e+00
TDT2  C2vh  1  3.980000e-01  1.450000e+00
TDT2  C3vh  1  3.950000e-01  1.670000e+00
TDT2  C4vh  1  3.950000e-01  1.670000e+00
TDT2  C5vh  1  3.950000e-01  1.850000e+00
TDT2  C6vh  1  3.950000e-01  2.110000e+00
TDT2  N1ah  1  3.950000e-01  2.500000e+00
TDT2  N2ah  1  3.950000e-01  2.700000e+00
TDT2  N3ah  1  3.950000e-01  2.700000e+00
TDT2  N4ah  1  3.950000e-01  2.940000e+00
TDT2  N5ah  1  3.950000e-01  2.940000e+00
TDT2  N1dh  1  3.950000e-01  2.110000e+00
TDT2  N2dh  1  3.950000e-01  2.310000e+00
TDT2  N3dh  1  3.950000e-01  2.310000e+00
TDT2  N4dh  1  3.950000e-01  2.500000e+00
TDT2  N4r  1  3.950000e-01  2.700000e+00
TDT2  N3r  1  3.950000e-01  2.500000e+00
TDT2  N2r  1  3.950000e-01  2.500000e+00
TDT2  N1r  1  3.950000e-01  2.310000e+00
TDT2  C6r  1  3.950000e-01  2.310000e+00
TDT2  C5r  1  3.950000e-01  2.110000e+00
TDT2  C4r  1  3.950000e-01  1.850000e+00
TDT2  C3r  1  3.950000e-01  1.850000e+00
TDT2  C2r  1  3.950000e-01  1.670000e+00
TDT2  C1r  1  3.980000e-01  1.450000e+00
TDT2  X4r  1  3.950000e-01  2.500000e+00
TDT2  X3r  1  3.950000e-01  2.310000e+00
TDT2  X2r  1  3.950000e-01  2.110000e+00
TDT2  X1r  1  3.950000e-01  1.850000e+00
TDT2  N5dr  1  3.950000e-01  2.500000e+00
TDT2  X1er  1  3.950000e-01  2.110000e+00
TDT2  X2er  1  3.950000e-01  2.310000e+00
TDT2  X3er  1  3.950000e-01  2.500000e+00
TDT2  X4er  1  3.950000e-01  2.700000e+00
TDT2  C1er  1  3.950000e-01  1.670000e+00
TDT2  C2er  1  3.950000e-01  1.850000e+00
TDT2  C3er  1  3.950000e-01  2.110000e+00
TDT2  C4er  1  3.950000e-01  2.110000e+00
TDT2  C5er  1  3.950000e-01  2.310000e+00
TDT2  C6er  1  3.950000e-01  2.500000e+00
TDT2  X1vr  1  3.950000e-01  1.670000e+00
TDT2  X2vr  1  3.950000e-01  1.850000e+00
TDT2  X3vr  1  3.950000e-01  2.110000e+00
TDT2  X4vr  1  3.950000e-01  2.310000e+00
TDT2  C1vr  1  3.990000e-01  1.180000e+00
TDT2  C2vr  1  3.980000e-01  1.450000e+00
TDT2  C3vr  1  3.950000e-01  1.670000e+00
TDT2  C4vr  1  3.950000e-01  1.670000e+00
TDT2  C5vr  1  3.950000e-01  1.850000e+00
TDT2  C6vr  1  3.950000e-01  2.110000e+00
TDT2  N1ar  1  3.950000e-01  2.500000e+00
TDT2  N2ar  1  3.950000e-01  2.700000e+00
TDT2  N3ar  1  3.950000e-01  2.700000e+00
TDT2  N4ar  1  3.950000e-01  2.940000e+00
TDT2  N5ar  1  3.950000e-01  2.940000e+00
TDT2  N1dr  1  3.950000e-01  2.110000e+00
TDT2  N2dr  1  3.950000e-01  2.310000e+00
TDT2  N3dr  1  3.950000e-01  2.310000e+00
TDT2  N4dr  1  3.950000e-01  2.500000e+00
TDT2  TN5a  1  3.400000e-01  2.740000e+00
TDT2  TN4a  1  3.400000e-01  2.740000e+00
TDT2  TN3a  1  3.400000e-01  2.500000e+00
TDT2  TN2a  1  3.400000e-01  2.500000e+00
TDT2  TN1a  1  3.400000e-01  2.280000e+00
TDT2  TN1aq  1  3.400000e-01  2.740000e+00
TDT2  TN2aq  1  3.400000e-01  2.990000e+00
TDT2  TN3aq  1  3.400000e-01  2.990000e+00
TDT2  TN4aq  1  3.400000e-01  3.220000e+00
TDT2  TN5aq  1  3.400000e-01  3.220000e+00
TDT2  TN1ah  1  3.400000e-01  2.280000e+00
TDT2  TN2ah  1  3.400000e-01  2.500000e+00
TDT2  TN3ah  1  3.400000e-01  2.500000e+00
TDT2  TN4ah  1  3.400000e-01  2.740000e+00
TDT2  TN5ah  1  3.400000e-01  2.740000e+00
TDT2  TN1ar  1  3.400000e-01  2.280000e+00
TDT2  TN2ar  1  3.400000e-01  2.500000e+00
TDT2  TN3ar  1  3.400000e-01  2.500000e+00
TDT2  TN4ar  1  3.400000e-01  2.740000e+00
TDT2  TN5ar  1  3.400000e-01  2.740000e+00
TP6a  TDT2  1  3.400000e-01  2.500000e+00
TP5a  TDT2  1  3.400000e-01  2.500000e+00
TP4a  TDT2  1  3.400000e-01  2.500000e+00
TP3a  TDT2  1  3.400000e-01  2.500000e+00
TP2a  TDT2  1  3.400000e-01  2.740000e+00
TP1a  TDT2  1  3.400000e-01  2.740000e+00
TN6a  TDT2  1  3.400000e-01  2.990000e+00
TN6aq  TDT2  1  3.400000e-01  3.470000e+00
TP1aq  TDT2  1  3.400000e-01  3.220000e+00
TP2aq  TDT2  1  3.400000e-01  3.220000e+00
TP3aq  TDT2  1  3.400000e-01  2.990000e+00
TP4aq  TDT2  1  3.400000e-01  2.990000e+00
TP5aq  TDT2  1  3.400000e-01  2.990000e+00
TP6aq  TDT2  1  3.400000e-01  2.990000e+00
TN6ah  TDT2  1  3.400000e-01  2.990000e+00
TP1ah  TDT2  1  3.400000e-01  2.740000e+00
TP2ah  TDT2  1  3.400000e-01  2.740000e+00
TP3ah  TDT2  1  3.400000e-01  2.500000e+00
TP4ah  TDT2  1  3.400000e-01  2.500000e+00
TP5ah  TDT2  1  3.400000e-01  2.500000e+00
TP6ah  TDT2  1  3.400000e-01  2.500000e+00
TN6ar  TDT2  1  3.400000e-01  2.990000e+00
TP1ar  TDT2  1  3.400000e-01  2.740000e+00
TP2ar  TDT2  1  3.400000e-01  2.740000e+00
TP3ar  TDT2  1  3.400000e-01  2.500000e+00
TP4ar  TDT2  1  3.400000e-01  2.500000e+00
TP5ar  TDT2  1  3.400000e-01  2.500000e+00
TP6ar  TDT2  1  3.400000e-01  2.500000e+00
TDT2  TC6e  1  3.400000e-01  1.770000e+00
TDT2  TC5e  1  3.400000e-01  1.510000e+00
TDT2  TC4e  1  3.400000e-01  1.230000e+00
TDT2  TC3e  1  3.400000e-01  1.230000e+00
TDT2  TC2e  1  3.520000e-01  1.050000e+00
TDT2  TC1e  1  3.660000e-01  9.350000e-01
TDT2  TX4e  1  3.400000e-01  2.020000e+00
TDT2  TX3e  1  3.400000e-01  1.770000e+00
TDT2  TX2e  1  3.400000e-01  1.510000e+00
TDT2  TX1e  1  3.400000e-01  1.230000e+00
TDT2  TX1eq  1  3.400000e-01  1.770000e+00
TDT2  TX2eq  1  3.400000e-01  2.020000e+00
TDT2  TX3eq  1  3.400000e-01  2.280000e+00
TDT2  TX4eq  1  3.400000e-01  2.500000e+00
TDT2  TC1eq  1  3.400000e-01  1.230000e+00
TDT2  TC2eq  1  3.400000e-01  1.510000e+00
TDT2  TC3eq  1  3.400000e-01  1.770000e+00
TDT2  TC4eq  1  3.400000e-01  1.770000e+00
TDT2  TC5eq  1  3.400000e-01  2.020000e+00
TDT2  TC6eq  1  3.400000e-01  2.280000e+00
TDT2  TX1eh  1  3.400000e-01  1.230000e+00
TDT2  TX2eh  1  3.400000e-01  1.510000e+00
TDT2  TX3eh  1  3.400000e-01  1.770000e+00
TDT2  TX4eh  1  3.400000e-01  2.020000e+00
TDT2  TC1eh  1  3.660000e-01  9.350000e-01
TDT2  TC2eh  1  3.520000e-01  1.050000e+00
TDT2  TC3eh  1  3.400000e-01  1.230000e+00
TDT2  TC4eh  1  3.400000e-01  1.230000e+00
TDT2  TC5eh  1  3.400000e-01  1.510000e+00
TDT2  TC6eh  1  3.400000e-01  1.770000e+00
TDT2  TX1er  1  3.400000e-01  1.230000e+00
TDT2  TX2er  1  3.400000e-01  1.510000e+00
TDT2  TX3er  1  3.400000e-01  1.770000e+00
TDT2  TX4er  1  3.400000e-01  2.020000e+00
TDT2  TC1er  1  3.660000e-01  9.350000e-01
TDT2  TC2er  1  3.520000e-01  1.050000e+00
TDT2  TC3er  1  3.400000e-01  1.230000e+00
TDT2  TC4er  1  3.400000e-01  1.230000e+00
TDT2  TC5er  1  3.400000e-01  1.510000e+00
TDT2  TC6er  1  3.400000e-01  1.770000e+00
TDT2  TC6v  1  3.400000e-01  1.230000e+00
TDT2  TC5v  1  3.520000e-01  1.050000e+00
TDT2  TC4v  1  3.660000e-01  9.350000e-01
TDT2  TC3v  1  3.660000e-01  9.350000e-01
TDT2  TC2v  1  3.850000e-01  8.550000e-01
TDT2  TC1v  1  4.110000e-01  8.010000e-01
TDT2  TX4v  1  3.400000e-01  1.510000e+00
TDT2  TX3v  1  3.400000e-01  1.230000e+00
TDT2  TX2v  1  3.520000e-01  1.050000e+00
TDT2  TX1v  1  3.660000e-01  9.350000e-01
TDT2  TX1vq  1  3.400000e-01  1.230000e+00
TDT2  TX2vq  1  3.400000e-01  1.510000e+00
TDT2  TX3vq  1  3.400000e-01  1.770000e+00
TDT2  TX4vq  1  3.400000e-01  2.020000e+00
TDT2  TC1vq  1  3.660000e-01  9.350000e-01
TDT2  TC2vq  1  3.520000e-01  1.050000e+00
TDT2  TC3vq  1  3.400000e-01  1.230000e+00
TDT2  TC4vq  1  3.400000e-01  1.230000e+00
TDT2  TC5vq  1  3.400000e-01  1.510000e+00
TDT2  TC6vq  1  3.400000e-01  1.770000e+00
TDT2  TX1vh  1  3.660000e-01  9.350000e-01
TDT2  TX2vh  1  3.520000e-01  1.050000e+00
TDT2  TX3vh  1  3.400000e-01  1.230000e+00
TDT2  TX4vh  1  3.400000e-01  1.510000e+00
TDT2  TC1vh  1  4.110000e-01  8.010000e-01
TDT2  TC2vh  1  3.850000e-01  8.550000e-01
TDT2  TC3vh  1  3.660000e-01  9.350000e-01
TDT2  TC4vh  1  3.660000e-01  9.350000e-01
TDT2  TC5vh  1  3.520000e-01  1.050000e+00
TDT2  TC6vh  1  3.400000e-01  1.230000e+00
TDT2  TX1vr  1  3.660000e-01  9.350000e-01
TDT2  TX2vr  1  3.520000e-01  1.050000e+00
TDT2  TX3vr  1  3.400000e-01  1.230000e+00
TDT2  TX4vr  1  3.400000e-01  1.510000e+00
TDT2  TC1vr  1  4.110000e-01  8.010000e-01
TDT2  TC2vr  1  3.850000e-01  8.550000e-01
TDT2  TC3vr  1  3.660000e-01  9.350000e-01
TDT2  TC4vr  1  3.660000e-01  9.350000e-01
TDT2  TC5vr  1  3.520000e-01  1.050000e+00
TDT2  TC6vr  1  3.400000e-01  1.230000e+00
TDT2  TN5dq  1  3.400000e-01  2.280000e+00
TDT2  TN1dq  1  3.400000e-01  1.770000e+00
TDT2  TN2dq  1  3.400000e-01  2.020000e+00
TDT2  TN3dq  1  3.400000e-01  2.020000e+00
TDT2  TN4dq  1  3.400000e-01  2.280000e+00
TDT2  TN5dh  1  3.400000e-01  1.770000e+00
TDT2  TN1dh  1  3.400000e-01  1.230000e+00
TDT2  TN2dh  1  3.400000e-01  1.510000e+00
TDT2  TN3dh  1  3.400000e-01  1.510000e+00
TDT2  TN4dh  1  3.400000e-01  1.770000e+00
TDT2  TN5dr  1  3.400000e-01  1.770000e+00
TDT2  TN1dr  1  3.400000e-01  1.230000e+00
TDT2  TN2dr  1  3.400000e-01  1.510000e+00
TDT2  TN3dr  1  3.400000e-01  1.510000e+00
TDT2  TN4dr  1  3.400000e-01  1.770000e+00
TP6d  TDT2  1  3.400000e-01  1.510000e+00
TP5d  TDT2  1  3.400000e-01  1.510000e+00
TP4d  TDT2  1  3.400000e-01  1.510000e+00
TP3d  TDT2  1  3.400000e-01  1.510000e+00
TP2d  TDT2  1  3.400000e-01  1.770000e+00
TP1d  TDT2  1  3.400000e-01  1.770000e+00
TN6d  TDT2  1  3.400000e-01  2.020000e+00
TDT2  TN5d  1  3.400000e-01  1.770000e+00
TDT2  TN4d  1  3.400000e-01  1.770000e+00
TDT2  TN3d  1  3.400000e-01  1.510000e+00
TDT2  TN2d  1  3.400000e-01  1.510000e+00
TDT2  TN1d  1  3.400000e-01  1.230000e+00
TP6q  TDT2  1  3.400000e-01  2.280000e+00
TP5q  TDT2  1  3.400000e-01  2.280000e+00
TP4q  TDT2  1  3.400000e-01  2.280000e+00
TP3q  TDT2  1  3.400000e-01  2.280000e+00
TP2q  TDT2  1  3.400000e-01  2.500000e+00
TP1q  TDT2  1  3.400000e-01  2.500000e+00
TN6q  TDT2  1  3.400000e-01  2.740000e+00
TN5q  TDT2  1  3.400000e-01  2.500000e+00
TDT2  TN4q  1  3.400000e-01  2.500000e+00
TDT2  TN3q  1  3.400000e-01  2.280000e+00
TDT2  TN2q  1  3.400000e-01  2.280000e+00
TDT2  TN1q  1  3.400000e-01  2.020000e+00
TDT2  TC6q  1  3.400000e-01  2.020000e+00
TDT2  TC5q  1  3.400000e-01  1.770000e+00
TDT2  TC4q  1  3.400000e-01  1.510000e+00
TDT2  TC3q  1  3.400000e-01  1.510000e+00
TDT2  TC2q  1  3.400000e-01  1.230000e+00
TDT2  TC1q  1  3.520000e-01  1.050000e+00
TDT2  TX4q  1  3.400000e-01  2.280000e+00
TDT2  TX3q  1  3.400000e-01  2.020000e+00
TDT2  TX2q  1  3.400000e-01  1.770000e+00
TDT2  TX1q  1  3.400000e-01  1.510000e+00
TP6h  TDT2  1  3.400000e-01  1.770000e+00
TP5h  TDT2  1  3.400000e-01  1.770000e+00
TP4h  TDT2  1  3.400000e-01  1.770000e+00
TP3h  TDT2  1  3.400000e-01  1.770000e+00
TP2h  TDT2  1  3.400000e-01  2.020000e+00
TP1h  TDT2  1  3.400000e-01  2.020000e+00
TN6h  TDT2  1  3.400000e-01  2.280000e+00
TN5h  TDT2  1  3.400000e-01  2.020000e+00
TDT2  TN4h  1  3.400000e-01  2.020000e+00
TDT2  TN3h  1  3.400000e-01  1.770000e+00
TDT2  TN2h  1  3.400000e-01  1.770000e+00
TDT2  TN1h  1  3.400000e-01  1.510000e+00
TDT2  TC6h  1  3.400000e-01  1.510000e+00
TDT2  TC5h  1  3.400000e-01  1.230000e+00
TDT2  TC4h  1  3.520000e-01  1.050000e+00
TDT2  TC3h  1  3.520000e-01  1.050000e+00
TDT2  TC2h  1  3.660000e-01  9.350000e-01
TDT2  TC1h  1  3.850000e-01  8.550000e-01
TDT2  TX4h  1  3.400000e-01  1.770000e+00
TDT2  TX3h  1  3.400000e-01  1.510000e+00
TDT2  TX2h  1  3.400000e-01  1.230000e+00
TDT2  TX1h  1  3.520000e-01  1.050000e+00
TP6r  TDT2  1  3.400000e-01  1.770000e+00
TP5r  TDT2  1  3.400000e-01  1.770000e+00
TP4r  TDT2  1  3.400000e-01  1.770000e+00
TP3r  TDT2  1  3.400000e-01  1.770000e+00
TP2r  TDT2  1  3.400000e-01  2.020000e+00
TP1r  TDT2  1  3.400000e-01  2.020000e+00
TN6r  TDT2  1  3.400000e-01  2.280000e+00
TN5r  TDT2  1  3.400000e-01  2.020000e+00
TDT2  TN4r  1  3.400000e-01  2.020000e+00
TDT2  TN3r  1  3.400000e-01  1.770000e+00
TDT2  TN2r  1  3.400000e-01  1.770000e+00
TDT2  TN1r  1  3.400000e-01  1.510000e+00
TDT2  TC6r  1  3.400000e-01  1.510000e+00
TDT2  TC5r  1  3.400000e-01  1.230000e+00
TDT2  TC4r  1  3.520000e-01  1.050000e+00
TDT2  TC3r  1  3.520000e-01  1.050000e+00
TDT2  TC2r  1  3.660000e-01  9.350000e-01
TDT2  TC1r  1  3.850000e-01  8.550000e-01
TDT2  TX4r  1  3.400000e-01  1.770000e+00
TDT2  TX3r  1  3.400000e-01  1.510000e+00
TDT2  TX2r  1  3.400000e-01  1.230000e+00
TDT2  TX1r  1  3.520000e-01  1.050000e+00
TP6dq  TDT2  1  3.400000e-01  2.020000e+00
TP5dq  TDT2  1  3.400000e-01  2.020000e+00
TP4dq  TDT2  1  3.400000e-01  2.020000e+00
TP3dq  TDT2  1  3.400000e-01  2.020000e+00
TP2dq  TDT2  1  3.400000e-01  2.280000e+00
TP1dq  TDT2  1  3.400000e-01  2.280000e+00
TN6dq  TDT2  1  3.400000e-01  2.500000e+00
TP6dh  TDT2  1  3.400000e-01  1.510000e+00
TP5dh  TDT2  1  3.400000e-01  1.510000e+00
TP4dh  TDT2  1  3.400000e-01  1.510000e+00
TP3dh  TDT2  1  3.400000e-01  1.510000e+00
TP2dh  TDT2  1  3.400000e-01  1.770000e+00
TP1dh  TDT2  1  3.400000e-01  1.770000e+00
TN6dh  TDT2  1  3.400000e-01  2.020000e+00
TP6dr  TDT2  1  3.400000e-01  1.510000e+00
TP5dr  TDT2  1  3.400000e-01  1.510000e+00
TP4dr  TDT2  1  3.400000e-01  1.510000e+00
TP3dr  TDT2  1  3.400000e-01  1.510000e+00
TP2dr  TDT2  1  3.400000e-01  1.770000e+00
TP1dr  TDT2  1  3.400000e-01  1.770000e+00
TN6dr  TDT2  1  3.400000e-01  2.020000e+00
W  TDT2  1  3.850000e-01  2.780000e+00
SW  TDT2  1  3.750000e-01  2.150000e+00
TW  TDT2  1  3.450000e-01  2.140000e+00
TDT2  D  1  3.950000e-01  4.244000e+00
TDT2  SD  1  3.650000e-01  9.813000e+00
TDT2  TD  1  3.400000e-01  1.160200e+01
TDT2  Q5  1  3.950000e-01  3.774000e+00
TDT2  SQ5  1  3.650000e-01  4.989000e+00
TDT2  TQ5  1  3.400000e-01  6.895000e+00
TDT2  Q5p  1  3.950000e-01  3.534000e+00
TDT2  SQ5p  1  3.650000e-01  4.719000e+00
TDT2  TQ5p  1  3.400000e-01  6.655000e+00
TDT2  Q5n  1  3.950000e-01  4.254000e+00
TDT2  SQ5n  1  3.650000e-01  5.529000e+00
TDT2  TQ5n  1  3.400000e-01  7.625000e+00
TDT2  Q4  1  3.950000e-01  3.782000e+00
TDT2  SQ4  1  3.650000e-01  5.033000e+00
TDT2  TQ4  1  3.400000e-01  6.993000e+00
TDT2  Q4p  1  3.950000e-01  3.542000e+00
TDT2  SQ4p  1  3.650000e-01  4.763000e+00
TDT2  TQ4p  1  3.400000e-01  6.753000e+00
TDT2  Q4n  1  3.950000e-01  4.262000e+00
TDT2  SQ4n  1  3.650000e-01  5.573000e+00
TDT2  TQ4n  1  3.400000e-01  7.723000e+00
TDT2  Q3  1  3.950000e-01  3.565000e+00
TDT2  SQ3  1  3.650000e-01  4.888000e+00
TDT2  TQ3  1  3.400000e-01  7.027000e+00
TDT2  Q3p  1  3.950000e-01  3.565000e+00
TDT2  SQ3p  1  3.650000e-01  4.888000e+00
TDT2  TQ3p  1  3.400000e-01  7.027000e+00
TDT2  Q3n  1  3.950000e-01  4.045000e+00
TDT2  SQ3n  1  3.650000e-01  5.428000e+00
TDT2  TQ3n  1  3.400000e-01  7.747000e+00
TDT2  Q2  1  3.950000e-01  3.580000e+00
TDT2  SQ2  1  3.650000e-01  4.972000e+00
TDT2  TQ2  1  3.400000e-01  7.212000e+00
TDT2  Q2p  1  3.950000e-01  3.580000e+00
TDT2  SQ2p  1  3.650000e-01  4.972000e+00
TDT2  TQ2p  1  3.400000e-01  7.212000e+00
TDT2  Q2n  1  3.950000e-01  4.060000e+00
TDT2  SQ2n  1  3.650000e-01  5.512000e+00
TDT2  TQ2n  1  3.400000e-01  7.932000e+00
TDT2  Q1  1  3.950000e-01  3.591000e+00
TDT2  SQ1  1  3.650000e-01  5.030000e+00
TDT2  TQ1  1  3.400000e-01  7.341000e+00
TDT2  Q1p  1  3.950000e-01  3.591000e+00
TDT2  SQ1p  1  3.650000e-01  5.030000e+00
TDT2  TQ1p  1  3.400000e-01  7.341000e+00
TDT2  Q1n  1  3.950000e-01  4.071000e+00
TDT2  SQ1n  1  3.650000e-01  5.570000e+00
TDT2  TQ1n  1  3.400000e-01  8.061000e+00
P6  TDT3  1  3.950000e-01  3.190000e+00
SP6  TDT3  1  3.650000e-01  2.830000e+00
TP6  TDT3  1  3.400000e-01  2.500000e+00
P5  TDT3  1  3.950000e-01  2.940000e+00
SP5  TDT3  1  3.650000e-01  2.570000e+00
TP5  TDT3  1  3.400000e-01  2.280000e+00
P4  TDT3  1  3.950000e-01  2.940000e+00
SP4  TDT3  1  3.650000e-01  2.570000e+00
TP4  TDT3  1  3.400000e-01  2.280000e+00
P3  TDT3  1  3.950000e-01  2.940000e+00
SP3  TDT3  1  3.650000e-01  2.570000e+00
TP3  TDT3  1  3.400000e-01  2.280000e+00
P2  TDT3  1  3.950000e-01  2.940000e+00
SP2  TDT3  1  3.650000e-01  2.570000e+00
TP2  TDT3  1  3.400000e-01  2.280000e+00
P1  TDT3  1  3.950000e-01  2.940000e+00
SP1  TDT3  1  3.650000e-01  2.570000e+00
TP1  TDT3  1  3.400000e-01  2.280000e+00
TDT3  N6  1  3.950000e-01  2.940000e+00
TDT3  SN6  1  3.650000e-01  2.570000e+00
TDT3  TN6  1  3.400000e-01  2.280000e+00
TDT3  N5  1  3.950000e-01  2.700000e+00
TDT3  SN5  1  3.650000e-01  2.340000e+00
TDT3  TN5  1  3.400000e-01  2.020000e+00
TDT3  N4  1  3.950000e-01  2.700000e+00
TDT3  SN4  1  3.650000e-01  2.340000e+00
TDT3  TN4  1  3.400000e-01  2.020000e+00
TDT3  N3  1  3.950000e-01  2.310000e+00
TDT3  SN3  1  3.650000e-01  1.910000e+00
TDT3  TN3  1  3.400000e-01  1.510000e+00
TDT3  N2  1  3.950000e-01  2.310000e+00
TDT3  SN2  1  3.650000e-01  1.910000e+00
TDT3  TN2  1  3.400000e-01  1.510000e+00
TDT3  N1  1  3.950000e-01  2.310000e+00
TDT3  SN1  1  3.650000e-01  1.910000e+00
TDT3  TN1  1  3.400000e-01  1.510000e+00
TDT3  C6  1  3.950000e-01  2.110000e+00
TDT3  SC6  1  3.650000e-01  1.750000e+00
TDT3  TC6  1  3.400000e-01  1.230000e+00
TDT3  C5  1  3.950000e-01  1.850000e+00
TDT3  SC5  1  3.660000e-01  1.600000e+00
TDT3  TC5  1  3.520000e-01  1.050000e+00
TDT3  C4  1  3.950000e-01  1.670000e+00
TDT3  SC4  1  3.780000e-01  1.450000e+00
TDT3  TC4  1  3.660000e-01  9.350000e-01
TDT3  C3  1  3.980000e-01  1.450000e+00
TDT3  SC3  1  3.940000e-01  1.290000e+00
TDT3  TC3  1  3.850000e-01  8.550000e-01
TDT3  C2  1  3.980000e-01  1.450000e+00
TDT3  SC2  1  3.940000e-01  1.290000e+00
TDT3  TC2  1  3.850000e-01  8.550000e-01
TDT3  C1  1  3.990000e-01  1.180000e+00
TDT3  SC1  1  4.040000e-01  1.130000e+00
TDT3  TC1  1  4.110000e-01  8.010000e-01
TDT3  X4  1  3.950000e-01  2.110000e+00
TDT3  SX4  1  3.650000e-01  1.750000e+00
TDT3  TX4  1  3.400000e-01  1.230000e+00
TDT3  X3  1  3.950000e-01  2.110000e+00
TDT3  SX3  1  3.650000e-01  1.750000e+00
TDT3  TX3  1  3.400000e-01  1.230000e+00
TDT3  X2  1  3.950000e-01  1.850000e+00
TDT3  SX2  1  3.660000e-01  1.600000e+00
TDT3  TX2  1  3.520000e-01  1.050000e+00
TDT3  X1  1  3.950000e-01  1.670000e+00
TDT3  SX1  1  3.780000e-01  1.450000e+00
TDT3  TX1  1  3.660000e-01  9.350000e-01
SP6a  TDT3  1  3.650000e-01  2.570000e+00
SP5a  TDT3  1  3.650000e-01  2.340000e+00
SP4a  TDT3  1  3.650000e-01  2.340000e+00
SP3a  TDT3  1  3.650000e-01  2.340000e+00
SP2a  TDT3  1  3.650000e-01  2.340000e+00
SP1a  TDT3  1  3.650000e-01  2.340000e+00
SP6d  TDT3  1  3.650000e-01  3.100000e+00
SP5d  TDT3  1  3.650000e-01  2.830000e+00
SP4d  TDT3  1  3.650000e-01  2.830000e+00
SP3d  TDT3  1  3.650000e-01  2.830000e+00
SP2d  TDT3  1  3.650000e-01  2.830000e+00
SP1d  TDT3  1  3.650000e-01  2.830000e+00
SP6q  TDT3  1  3.650000e-01  3.370000e+00
SP5q  TDT3  1  3.650000e-01  3.100000e+00
SP4q  TDT3  1  3.650000e-01  3.100000e+00
SP3q  TDT3  1  3.650000e-01  3.100000e+00
SP2q  TDT3  1  3.650000e-01  3.100000e+00
SP1q  TDT3  1  3.650000e-01  3.100000e+00
SP6h  TDT3  1  3.650000e-01  2.830000e+00
SP5h  TDT3  1  3.650000e-01  2.570000e+00
SP4h  TDT3  1  3.650000e-01  2.570000e+00
SP3h  TDT3  1  3.650000e-01  2.570000e+00
SP2h  TDT3  1  3.650000e-01  2.570000e+00
SP1h  TDT3  1  3.650000e-01  2.570000e+00
SP6r  TDT3  1  3.650000e-01  2.830000e+00
SP5r  TDT3  1  3.650000e-01  2.570000e+00
SP4r  TDT3  1  3.650000e-01  2.570000e+00
SP3r  TDT3  1  3.650000e-01  2.570000e+00
SP2r  TDT3  1  3.650000e-01  2.570000e+00
SP1r  TDT3  1  3.650000e-01  2.570000e+00
SP6dq  TDT3  1  3.650000e-01  3.640000e+00
SP5dq  TDT3  1  3.650000e-01  3.370000e+00
SP4dq  TDT3  1  3.650000e-01  3.370000e+00
SP3dq  TDT3  1  3.650000e-01  3.370000e+00
SP2dq  TDT3  1  3.650000e-01  3.370000e+00
SP1dq  TDT3  1  3.650000e-01  3.370000e+00
SP6aq  TDT3  1  3.650000e-01  3.100000e+00
SP5aq  TDT3  1  3.650000e-01  2.830000e+00
SP4aq  TDT3  1  3.650000e-01  2.830000e+00
SP3aq  TDT3  1  3.650000e-01  2.830000e+00
SP2aq  TDT3  1  3.650000e-01  2.830000e+00
SP6dh  TDT3  1  3.650000e-01  3.100000e+00
SP5dh  TDT3  1  3.650000e-01  2.830000e+00
SP4dh  TDT3  1  3.650000e-01  2.830000e+00
SP3dh  TDT3  1  3.650000e-01  2.830000e+00
SP2dh  TDT3  1  3.650000e-01  2.830000e+00
SP1dh  TDT3  1  3.650000e-01  2.830000e+00
SP6ah  TDT3  1  3.650000e-01  2.570000e+00
SP5ah  TDT3  1  3.650000e-01  2.340000e+00
SP4ah  TDT3  1  3.650000e-01  2.340000e+00
SP3ah  TDT3  1  3.650000e-01  2.340000e+00
SP2ah  TDT3  1  3.650000e-01  2.340000e+00
SP6dr  TDT3  1  3.650000e-01  3.100000e+00
SP5dr  TDT3  1  3.650000e-01  2.830000e+00
SP4dr  TDT3  1  3.650000e-01  2.830000e+00
SP3dr  TDT3  1  3.650000e-01  2.830000e+00
SP2dr  TDT3  1  3.650000e-01  2.830000e+00
SP1dr  TDT3  1  3.650000e-01  2.830000e+00
SP6ar  TDT3  1  3.650000e-01  2.570000e+00
SP5ar  TDT3  1  3.650000e-01  2.340000e+00
SP4ar  TDT3  1  3.650000e-01  2.340000e+00
SP3ar  TDT3  1  3.650000e-01  2.340000e+00
SP2ar  TDT3  1  3.650000e-01  2.340000e+00
TDT3  SN6dq  1  3.650000e-01  3.370000e+00
TDT3  SN5dq  1  3.650000e-01  3.100000e+00
TDT3  SN4dq  1  3.650000e-01  3.100000e+00
TDT3  SN3dq  1  3.650000e-01  2.570000e+00
TDT3  SN2dq  1  3.650000e-01  2.570000e+00
TDT3  SN1dq  1  3.650000e-01  2.570000e+00
TDT3  SP1aq  1  3.650000e-01  2.830000e+00
TDT3  SX1eq  1  3.660000e-01  1.600000e+00
TDT3  SX2eq  1  3.650000e-01  1.750000e+00
TDT3  SX3eq  1  3.650000e-01  1.910000e+00
TDT3  SX4eq  1  3.650000e-01  1.910000e+00
TDT3  SC1eq  1  3.940000e-01  1.290000e+00
TDT3  SC2eq  1  3.780000e-01  1.450000e+00
TDT3  SC3eq  1  3.780000e-01  1.450000e+00
TDT3  SC4eq  1  3.660000e-01  1.600000e+00
TDT3  SC5eq  1  3.650000e-01  1.750000e+00
TDT3  SC6eq  1  3.650000e-01  1.910000e+00
TDT3  SX1vq  1  3.650000e-01  1.910000e+00
TDT3  SX2vq  1  3.650000e-01  2.110000e+00
TDT3  SX3vq  1  3.650000e-01  2.340000e+00
TDT3  SX4vq  1  3.650000e-01  2.340000e+00
TDT3  SC1vq  1  3.660000e-01  1.600000e+00
TDT3  SC2vq  1  3.650000e-01  1.750000e+00
TDT3  SC3vq  1  3.650000e-01  1.750000e+00
TDT3  SC4vq  1  3.650000e-01  1.910000e+00
TDT3  SC5vq  1  3.650000e-01  2.110000e+00
TDT3  SC6vq  1  3.650000e-01  2.340000e+00
TDT3  SN1aq  1  3.650000e-01  2.110000e+00
TDT3  SN2aq  1  3.650000e-01  2.110000e+00
TDT3  SN3aq  1  3.650000e-01  2.110000e+00
TDT3  SN4aq  1  3.650000e-01  2.570000e+00
TDT3  SN5aq  1  3.650000e-01  2.570000e+00
TDT3  SN6aq  1  3.650000e-01  2.830000e+00
TDT3  SN6dh  1  3.650000e-01  2.830000e+00
TDT3  SN5dh  1  3.650000e-01  2.570000e+00
TDT3  SN4dh  1  3.650000e-01  2.570000e+00
TDT3  SN3dh  1  3.650000e-01  2.110000e+00
TDT3  SN2dh  1  3.650000e-01  2.110000e+00
TDT3  SN1dh  1  3.650000e-01  2.110000e+00
TDT3  SP1ah  1  3.650000e-01  2.340000e+00
TDT3  SX1eh  1  3.940000e-01  1.290000e+00
TDT3  SX2eh  1  3.780000e-01  1.450000e+00
TDT3  SX3eh  1  3.660000e-01  1.600000e+00
TDT3  SX4eh  1  3.660000e-01  1.600000e+00
TDT3  SC1eh  1  4.090000e-01  1.080000e+00
TDT3  SC2eh  1  4.040000e-01  1.130000e+00
TDT3  SC3eh  1  4.040000e-01  1.130000e+00
TDT3  SC4eh  1  3.940000e-01  1.290000e+00
TDT3  SC5eh  1  3.780000e-01  1.450000e+00
TDT3  SC6eh  1  3.660000e-01  1.600000e+00
TDT3  SX1vh  1  3.660000e-01  1.600000e+00
TDT3  SX2vh  1  3.650000e-01  1.750000e+00
TDT3  SX3vh  1  3.650000e-01  1.910000e+00
TDT3  SX4vh  1  3.650000e-01  1.910000e+00
TDT3  SC1vh  1  3.940000e-01  1.290000e+00
TDT3  SC2vh  1  3.780000e-01  1.450000e+00
TDT3  SC3vh  1  3.780000e-01  1.450000e+00
TDT3  SC4vh  1  3.660000e-01  1.600000e+00
TDT3  SC5vh  1  3.650000e-01  1.750000e+00
TDT3  SC6vh  1  3.650000e-01  1.910000e+00
TDT3  SN1ah  1  3.650000e-01  1.750000e+00
TDT3  SN2ah  1  3.650000e-01  1.750000e+00
TDT3  SN3ah  1  3.650000e-01  1.750000e+00
TDT3  SN4ah  1  3.650000e-01  2.110000e+00
TDT3  SN5ah  1  3.650000e-01  2.110000e+00
TDT3  SN6ah  1  3.650000e-01  2.340000e+00
TDT3  SN6dr  1  3.650000e-01  2.830000e+00
TDT3  SN5dr  1  3.650000e-01  2.570000e+00
TDT3  SN4dr  1  3.650000e-01  2.570000e+00
TDT3  SN3dr  1  3.650000e-01  2.110000e+00
TDT3  SN2dr  1  3.650000e-01  2.110000e+00
TDT3  SN1dr  1  3.650000e-01  2.110000e+00
TDT3  SP1ar  1  3.650000e-01  2.340000e+00
TDT3  SX1er  1  3.940000e-01  1.290000e+00
TDT3  SX2er  1  3.780000e-01  1.450000e+00
TDT3  SX3er  1  3.660000e-01  1.600000e+00
TDT3  SX4er  1  3.660000e-01  1.600000e+00
TDT3  SC1er  1  4.090000e-01  1.080000e+00
TDT3  SC2er  1  4.040000e-01  1.130000e+00
TDT3  SC3er  1  4.040000e-01  1.130000e+00
TDT3  SC4er  1  3.940000e-01  1.290000e+00
TDT3  SC5er  1  3.780000e-01  1.450000e+00
TDT3  SC6er  1  3.660000e-01  1.600000e+00
TDT3  SX1vr  1  3.660000e-01  1.600000e+00
TDT3  SX2vr  1  3.650000e-01  1.750000e+00
TDT3  SX3vr  1  3.650000e-01  1.910000e+00
TDT3  SX4vr  1  3.650000e-01  1.910000e+00
TDT3  SC1vr  1  3.940000e-01  1.290000e+00
TDT3  SC2vr  1  3.780000e-01  1.450000e+00
TDT3  SC3vr  1  3.780000e-01  1.450000e+00
TDT3  SC4vr  1  3.660000e-01  1.600000e+00
TDT3  SC5vr  1  3.650000e-01  1.750000e+00
TDT3  SC6vr  1  3.650000e-01  1.910000e+00
TDT3  SN1ar  1  3.650000e-01  1.750000e+00
TDT3  SN2ar  1  3.650000e-01  1.750000e+00
TDT3  SN3ar  1  3.650000e-01  1.750000e+00
TDT3  SN4ar  1  3.650000e-01  2.110000e+00
TDT3  SN5ar  1  3.650000e-01  2.110000e+00
TDT3  SN6ar  1  3.650000e-01  2.340000e+00
TDT3  SN6a  1  3.650000e-01  2.340000e+00
TDT3  SN5a  1  3.650000e-01  2.110000e+00
TDT3  SN4a  1  3.650000e-01  2.110000e+00
TDT3  SN3a  1  3.650000e-01  1.750000e+00
TDT3  SN2a  1  3.650000e-01  1.750000e+00
TDT3  SN1a  1  3.650000e-01  1.750000e+00
TDT3  SN6d  1  3.650000e-01  2.830000e+00
TDT3  SN5d  1  3.650000e-01  2.570000e+00
TDT3  SN4d  1  3.650000e-01  2.570000e+00
TDT3  SN3d  1  3.650000e-01  2.110000e+00
TDT3  SN2d  1  3.650000e-01  2.110000e+00
TDT3  SN1d  1  3.650000e-01  2.110000e+00
TDT3  SC6v  1  3.650000e-01  1.910000e+00
TDT3  SC5v  1  3.650000e-01  1.750000e+00
TDT3  SC4v  1  3.660000e-01  1.600000e+00
TDT3  SC3v  1  3.780000e-01  1.450000e+00
TDT3  SC2v  1  3.780000e-01  1.450000e+00
TDT3  SC1v  1  3.940000e-01  1.290000e+00
TDT3  SX4v  1  3.650000e-01  1.910000e+00
TDT3  SX3v  1  3.650000e-01  1.910000e+00
TDT3  SX2v  1  3.650000e-01  1.750000e+00
TDT3  SX1v  1  3.660000e-01  1.600000e+00
TDT3  SC6e  1  3.660000e-01  1.600000e+00
TDT3  SC5e  1  3.780000e-01  1.450000e+00
TDT3  SC4e  1  3.940000e-01  1.290000e+00
TDT3  SC3e  1  4.040000e-01  1.130000e+00
TDT3  SC2e  1  4.040000e-01  1.130000e+00
TDT3  SC1e  1  4.090000e-01  1.080000e+00
TDT3  SX4e  1  3.660000e-01  1.600000e+00
TDT3  SX3e  1  3.660000e-01  1.600000e+00
TDT3  SX2e  1  3.780000e-01  1.450000e+00
TDT3  SX1e  1  3.940000e-01  1.290000e+00
TDT3  SN6q  1  3.650000e-01  3.100000e+00
TDT3  SN5q  1  3.650000e-01  2.830000e+00
TDT3  SN4q  1  3.650000e-01  2.830000e+00
TDT3  SN3q  1  3.650000e-01  2.340000e+00
TDT3  SN2q  1  3.650000e-01  2.340000e+00
TDT3  SN1q  1  3.650000e-01  2.340000e+00
TDT3  SC6q  1  3.650000e-01  2.110000e+00
TDT3  SC5q  1  3.650000e-01  1.910000e+00
TDT3  SC4q  1  3.650000e-01  1.750000e+00
TDT3  SC3q  1  3.660000e-01  1.600000e+00
TDT3  SC2q  1  3.660000e-01  1.600000e+00
TDT3  SC1q  1  3.780000e-01  1.450000e+00
TDT3  SX4q  1  3.650000e-01  2.110000e+00
TDT3  SX3q  1  3.650000e-01  2.110000e+00
TDT3  SX2q  1  3.650000e-01  1.910000e+00
TDT3  SX1q  1  3.650000e-01  1.750000e+00
TDT3  SN6h  1  3.650000e-01  2.570000e+00
TDT3  SN5h  1  3.650000e-01  2.340000e+00
TDT3  SN4h  1  3.650000e-01  2.340000e+00
TDT3  SN3h  1  3.650000e-01  1.910000e+00
TDT3  SN2h  1  3.650000e-01  1.910000e+00
TDT3  SN1h  1  3.650000e-01  1.910000e+00
TDT3  SC6h  1  3.650000e-01  1.750000e+00
TDT3  SC5h  1  3.660000e-01  1.600000e+00
TDT3  SC4h  1  3.780000e-01  1.450000e+00
TDT3  SC3h  1  3.940000e-01  1.290000e+00
TDT3  SC2h  1  3.940000e-01  1.290000e+00
TDT3  SC1h  1  4.040000e-01  1.130000e+00
TDT3  SX4h  1  3.650000e-01  1.750000e+00
TDT3  SX3h  1  3.650000e-01  1.750000e+00
TDT3  SX2h  1  3.660000e-01  1.600000e+00
TDT3  SX1h  1  3.780000e-01  1.450000e+00
TDT3  SN6r  1  3.650000e-01  2.570000e+00
TDT3  SN5r  1  3.650000e-01  2.340000e+00
TDT3  SN4r  1  3.650000e-01  2.340000e+00
TDT3  SN3r  1  3.650000e-01  1.910000e+00
TDT3  SN2r  1  3.650000e-01  1.910000e+00
TDT3  SN1r  1  3.650000e-01  1.910000e+00
TDT3  SC6r  1  3.650000e-01  1.750000e+00
TDT3  SC5r  1  3.660000e-01  1.600000e+00
TDT3  SC4r  1  3.780000e-01  1.450000e+00
TDT3  SC3r  1  3.940000e-01  1.290000e+00
TDT3  SC2r  1  3.940000e-01  1.290000e+00
TDT3  SC1r  1  4.040000e-01  1.130000e+00
TDT3  SX4r  1  3.650000e-01  1.750000e+00
TDT3  SX3r  1  3.650000e-01  1.750000e+00
TDT3  SX2r  1  3.660000e-01  1.600000e+00
TDT3  SX1r  1  3.780000e-01  1.450000e+00
P6a  TDT3  1  3.950000e-01  2.940000e+00
P5a  TDT3  1  3.950000e-01  2.700000e+00
P4a  TDT3  1  3.950000e-01  2.700000e+00
P3a  TDT3  1  3.950000e-01  2.700000e+00
P2a  TDT3  1  3.950000e-01  2.700000e+00
P1a  TDT3  1  3.950000e-01  2.700000e+00
P6d  TDT3  1  3.950000e-01  3.430000e+00
P5d  TDT3  1  3.950000e-01  3.190000e+00
P4d  TDT3  1  3.950000e-01  3.190000e+00
P3d  TDT3  1  3.950000e-01  3.190000e+00
P2d  TDT3  1  3.950000e-01  3.190000e+00
P1d  TDT3  1  3.950000e-01  3.190000e+00
P6q  TDT3  1  3.950000e-01  3.670000e+00
P5q  TDT3  1  3.950000e-01  3.430000e+00
P4q  TDT3  1  3.950000e-01  3.430000e+00
P3q  TDT3  1  3.950000e-01  3.430000e+00
P2q  TDT3  1  3.950000e-01  3.430000e+00
P1q  TDT3  1  3.950000e-01  3.430000e+00
P6dq  TDT3  1  3.950000e-01  3.910000e+00
P5dq  TDT3  1  3.950000e-01  3.670000e+00
P4dq  TDT3  1  3.950000e-01  3.670000e+00
P3dq  TDT3  1  3.950000e-01  3.670000e+00
P2dq  TDT3  1  3.950000e-01  3.670000e+00
P1dq  TDT3  1  3.950000e-01  3.670000e+00
P6aq  TDT3  1  3.950000e-01  3.430000e+00
P5aq  TDT3  1  3.950000e-01  3.190000e+00
P4aq  TDT3  1  3.950000e-01  3.190000e+00
P3aq  TDT3  1  3.950000e-01  3.190000e+00
P2aq  TDT3  1  3.950000e-01  3.190000e+00
P6h  TDT3  1  3.950000e-01  3.190000e+00
P5h  TDT3  1  3.950000e-01  2.940000e+00
P4h  TDT3  1  3.950000e-01  2.940000e+00
P3h  TDT3  1  3.950000e-01  2.940000e+00
P2h  TDT3  1  3.950000e-01  2.940000e+00
P1h  TDT3  1  3.950000e-01  2.940000e+00
P6dh  TDT3  1  3.950000e-01  3.430000e+00
P5dh  TDT3  1  3.950000e-01  3.190000e+00
P4dh  TDT3  1  3.950000e-01  3.190000e+00
P3dh  TDT3  1  3.950000e-01  3.190000e+00
P2dh  TDT3  1  3.950000e-01  3.190000e+00
P1dh  TDT3  1  3.950000e-01  3.190000e+00
P6ah  TDT3  1  3.950000e-01  2.940000e+00
P5ah  TDT3  1  3.950000e-01  2.700000e+00
P4ah  TDT3  1  3.950000e-01  2.700000e+00
P3ah  TDT3  1  3.950000e-01  2.700000e+00
P2ah  TDT3  1  3.950000e-01  2.700000e+00
P6r  TDT3  1  3.950000e-01  3.190000e+00
P5r  TDT3  1  3.950000e-01  2.940000e+00
P4r  TDT3  1  3.950000e-01  2.940000e+00
P3r  TDT3  1  3.950000e-01  2.940000e+00
P2r  TDT3  1  3.950000e-01  2.940000e+00
P1r  TDT3  1  3.950000e-01  2.940000e+00
P6dr  TDT3  1  3.950000e-01  3.430000e+00
P5dr  TDT3  1  3.950000e-01  3.190000e+00
P4dr  TDT3  1  3.950000e-01  3.190000e+00
P3dr  TDT3  1  3.950000e-01  3.190000e+00
P2dr  TDT3  1  3.950000e-01  3.190000e+00
P1dr  TDT3  1  3.950000e-01  3.190000e+00
P6ar  TDT3  1  3.950000e-01  2.940000e+00
P5ar  TDT3  1  3.950000e-01  2.700000e+00
P4ar  TDT3  1  3.950000e-01  2.700000e+00
P3ar  TDT3  1  3.950000e-01  2.700000e+00
P2ar  TDT3  1  3.950000e-01  2.700000e+00
TDT3  N6a  1  3.950000e-01  2.700000e+00
TDT3  N5a  1  3.950000e-01  2.500000e+00
TDT3  N4a  1  3.950000e-01  2.500000e+00
TDT3  N3a  1  3.950000e-01  2.110000e+00
TDT3  N2a  1  3.950000e-01  2.110000e+00
TDT3  N1a  1  3.950000e-01  2.110000e+00
TDT3  N6d  1  3.950000e-01  3.190000e+00
TDT3  N5d  1  3.950000e-01  2.940000e+00
TDT3  N4d  1  3.950000e-01  2.940000e+00
TDT3  N3d  1  3.950000e-01  2.500000e+00
TDT3  N2d  1  3.950000e-01  2.500000e+00
TDT3  N1d  1  3.950000e-01  2.500000e+00
TDT3  C6v  1  3.950000e-01  2.310000e+00
TDT3  C5v  1  3.950000e-01  2.110000e+00
TDT3  C4v  1  3.950000e-01  1.850000e+00
TDT3  C3v  1  3.950000e-01  1.670000e+00
TDT3  C2v  1  3.950000e-01  1.670000e+00
TDT3  C1v  1  3.980000e-01  1.450000e+00
TDT3  X4v  1  3.950000e-01  2.310000e+00
TDT3  X3v  1  3.950000e-01  2.310000e+00
TDT3  X2v  1  3.950000e-01  2.110000e+00
TDT3  X1v  1  3.950000e-01  1.850000e+00
TDT3  C6e  1  3.950000e-01  1.850000e+00
TDT3  C5e  1  3.950000e-01  1.670000e+00
TDT3  C4e  1  3.980000e-01  1.450000e+00
TDT3  C3e  1  3.990000e-01  1.180000e+00
TDT3  C2e  1  3.990000e-01  1.180000e+00
TDT3  C1e  1  4.010000e-01  9.830000e-01
TDT3  X4e  1  3.950000e-01  1.850000e+00
TDT3  X3e  1  3.950000e-01  1.850000e+00
TDT3  X2e  1  3.950000e-01  1.670000e+00
TDT3  X1e  1  3.980000e-01  1.450000e+00
TDT3  N6q  1  3.950000e-01  3.430000e+00
TDT3  N5q  1  3.950000e-01  3.190000e+00
TDT3  N4q  1  3.950000e-01  3.190000e+00
TDT3  N3q  1  3.950000e-01  2.700000e+00
TDT3  N2q  1  3.950000e-01  2.700000e+00
TDT3  N1q  1  3.950000e-01  2.700000e+00
TDT3  C6q  1  3.950000e-01  2.500000e+00
TDT3  C5q  1  3.950000e-01  2.310000e+00
TDT3  C4q  1  3.950000e-01  2.110000e+00
TDT3  C3q  1  3.950000e-01  1.850000e+00
TDT3  C2q  1  3.950000e-01  1.850000e+00
TDT3  C1q  1  3.950000e-01  1.670000e+00
TDT3  X4q  1  3.950000e-01  2.500000e+00
TDT3  X3q  1  3.950000e-01  2.500000e+00
TDT3  X2q  1  3.950000e-01  2.310000e+00
TDT3  X1q  1  3.950000e-01  2.110000e+00
TDT3  N6dq  1  3.950000e-01  3.670000e+00
TDT3  N5dq  1  3.950000e-01  3.430000e+00
TDT3  N4dq  1  3.950000e-01  3.430000e+00
TDT3  N3dq  1  3.950000e-01  2.940000e+00
TDT3  N2dq  1  3.950000e-01  2.940000e+00
TDT3  N1dq  1  3.950000e-01  2.940000e+00
TDT3  P1aq  1  3.950000e-01  3.190000e+00
TDT3  X1eq  1  3.950000e-01  1.850000e+00
TDT3  X2eq  1  3.950000e-01  2.110000e+00
TDT3  X3eq  1  3.950000e-01  2.310000e+00
TDT3  X4eq  1  3.950000e-01  2.310000e+00
TDT3  C1eq  1  3.980000e-01  1.450000e+00
TDT3  C2eq  1  3.950000e-01  1.670000e+00
TDT3  C3eq  1  3.950000e-01  1.670000e+00
TDT3  C4eq  1  3.950000e-01  1.850000e+00
TDT3  C5eq  1  3.950000e-01  2.110000e+00
TDT3  C6eq  1  3.950000e-01  2.310000e+00
TDT3  X1vq  1  3.950000e-01  2.310000e+00
TDT3  X2vq  1  3.950000e-01  2.500000e+00
TDT3  X3vq  1  3.950000e-01  2.700000e+00
TDT3  X4vq  1  3.950000e-01  2.700000e+00
TDT3  C1vq  1  3.950000e-01  1.850000e+00
TDT3  C2vq  1  3.950000e-01  2.110000e+00
TDT3  C3vq  1  3.950000e-01  2.110000e+00
TDT3  C4vq  1  3.950000e-01  2.310000e+00
TDT3  C5vq  1  3.950000e-01  2.500000e+00
TDT3  C6vq  1  3.950000e-01  2.700000e+00
TDT3  N1aq  1  3.950000e-01  2.500000e+00
TDT3  N2aq  1  3.950000e-01  2.500000e+00
TDT3  N3aq  1  3.950000e-01  2.500000e+00
TDT3  N4aq  1  3.950000e-01  2.940000e+00
TDT3  N5aq  1  3.950000e-01  2.940000e+00
TDT3  N6aq  1  3.950000e-01  3.190000e+00
TDT3  N6h  1  3.950000e-01  2.940000e+00
TDT3  N5h  1  3.950000e-01  2.700000e+00
TDT3  N4h  1  3.950000e-01  2.700000e+00
TDT3  N3h  1  3.950000e-01  2.310000e+00
TDT3  N2h  1  3.950000e-01  2.310000e+00
TDT3  N1h  1  3.950000e-01  2.310000e+00
TDT3  C6h  1  3.950000e-01  2.110000e+00
TDT3  C5h  1  3.950000e-01  1.850000e+00
TDT3  C4h  1  3.950000e-01  1.670000e+00
TDT3  C3h  1  3.980000e-01  1.450000e+00
TDT3  C2h  1  3.980000e-01  1.450000e+00
TDT3  C1h  1  3.990000e-01  1.180000e+00
TDT3  X4h  1  3.950000e-01  2.110000e+00
TDT3  X3h  1  3.950000e-01  2.110000e+00
TDT3  X2h  1  3.950000e-01  1.850000e+00
TDT3  X1h  1  3.950000e-01  1.670000e+00
TDT3  N6dh  1  3.950000e-01  3.190000e+00
TDT3  N5dh  1  3.950000e-01  2.940000e+00
TDT3  N4dh  1  3.950000e-01  2.940000e+00
TDT3  N3dh  1  3.950000e-01  2.500000e+00
TDT3  N2dh  1  3.950000e-01  2.500000e+00
TDT3  N1dh  1  3.950000e-01  2.500000e+00
TDT3  P1ah  1  3.950000e-01  2.700000e+00
TDT3  X1eh  1  3.980000e-01  1.450000e+00
TDT3  X2eh  1  3.950000e-01  1.670000e+00
TDT3  X3eh  1  3.950000e-01  1.850000e+00
TDT3  X4eh  1  3.950000e-01  1.850000e+00
TDT3  C1eh  1  4.010000e-01  9.830000e-01
TDT3  C2eh  1  3.990000e-01  1.180000e+00
TDT3  C3eh  1  3.990000e-01  1.180000e+00
TDT3  C4eh  1  3.980000e-01  1.450000e+00
TDT3  C5eh  1  3.950000e-01  1.670000e+00
TDT3  C6eh  1  3.950000e-01  1.850000e+00
TDT3  X1vh  1  3.950000e-01  1.850000e+00
TDT3  X2vh  1  3.950000e-01  2.110000e+00
TDT3  X3vh  1  3.950000e-01  2.310000e+00
TDT3  X4vh  1  3.950000e-01  2.310000e+00
TDT3  C1vh  1  3.980000e-01  1.450000e+00
TDT3  C2vh  1  3.950000e-01  1.670000e+00
TDT3  C3vh  1  3.950000e-01  1.670000e+00
TDT3  C4vh  1  3.950000e-01  1.850000e+00
TDT3  C5vh  1  3.950000e-01  2.110000e+00
TDT3  C6vh  1  3.950000e-01  2.310000e+00
TDT3  N1ah  1  3.950000e-01  2.110000e+00
TDT3  N2ah  1  3.950000e-01  2.110000e+00
TDT3  N3ah  1  3.950000e-01  2.110000e+00
TDT3  N4ah  1  3.950000e-01  2.500000e+00
TDT3  N5ah  1  3.950000e-01  2.500000e+00
TDT3  N6ah  1  3.950000e-01  2.700000e+00
TDT3  N6r  1  3.950000e-01  2.940000e+00
TDT3  N5r  1  3.950000e-01  2.700000e+00
TDT3  N4r  1  3.950000e-01  2.700000e+00
TDT3  N3r  1  3.950000e-01  2.310000e+00
TDT3  N2r  1  3.950000e-01  2.310000e+00
TDT3  N1r  1  3.950000e-01  2.310000e+00
TDT3  C6r  1  3.950000e-01  2.110000e+00
TDT3  C5r  1  3.950000e-01  1.850000e+00
TDT3  C4r  1  3.950000e-01  1.670000e+00
TDT3  C3r  1  3.980000e-01  1.450000e+00
TDT3  C2r  1  3.980000e-01  1.450000e+00
TDT3  C1r  1  3.990000e-01  1.180000e+00
TDT3  X4r  1  3.950000e-01  2.110000e+00
TDT3  X3r  1  3.950000e-01  2.110000e+00
TDT3  X2r  1  3.950000e-01  1.850000e+00
TDT3  X1r  1  3.950000e-01  1.670000e+00
TDT3  N6dr  1  3.950000e-01  3.190000e+00
TDT3  N5dr  1  3.950000e-01  2.940000e+00
TDT3  N4dr  1  3.950000e-01  2.940000e+00
TDT3  N3dr  1  3.950000e-01  2.500000e+00
TDT3  N2dr  1  3.950000e-01  2.500000e+00
TDT3  N1dr  1  3.950000e-01  2.500000e+00
TDT3  P1ar  1  3.950000e-01  2.700000e+00
TDT3  X1er  1  3.980000e-01  1.450000e+00
TDT3  X2er  1  3.950000e-01  1.670000e+00
TDT3  X3er  1  3.950000e-01  1.850000e+00
TDT3  X4er  1  3.950000e-01  1.850000e+00
TDT3  C1er  1  4.010000e-01  9.830000e-01
TDT3  C2er  1  3.990000e-01  1.180000e+00
TDT3  C3er  1  3.990000e-01  1.180000e+00
TDT3  C4er  1  3.980000e-01  1.450000e+00
TDT3  C5er  1  3.950000e-01  1.670000e+00
TDT3  C6er  1  3.950000e-01  1.850000e+00
TDT3  X1vr  1  3.950000e-01  1.850000e+00
TDT3  X2vr  1  3.950000e-01  2.110000e+00
TDT3  X3vr  1  3.950000e-01  2.310000e+00
TDT3  X4vr  1  3.950000e-01  2.310000e+00
TDT3  C1vr  1  3.980000e-01  1.450000e+00
TDT3  C2vr  1  3.950000e-01  1.670000e+00
TDT3  C3vr  1  3.950000e-01  1.670000e+00
TDT3  C4vr  1  3.950000e-01  1.850000e+00
TDT3  C5vr  1  3.950000e-01  2.110000e+00
TDT3  C6vr  1  3.950000e-01  2.310000e+00
TDT3  N1ar  1  3.950000e-01  2.110000e+00
TDT3  N2ar  1  3.950000e-01  2.110000e+00
TDT3  N3ar  1  3.950000e-01  2.110000e+00
TDT3  N4ar  1  3.950000e-01  2.500000e+00
TDT3  N5ar  1  3.950000e-01  2.500000e+00
TDT3  N6ar  1  3.950000e-01  2.700000e+00
TP6d  TDT3  1  3.400000e-01  3.220000e+00
TP5d  TDT3  1  3.400000e-01  2.990000e+00
TP4d  TDT3  1  3.400000e-01  2.990000e+00
TP3d  TDT3  1  3.400000e-01  2.990000e+00
TP2d  TDT3  1  3.400000e-01  2.990000e+00
TP1d  TDT3  1  3.400000e-01  2.990000e+00
TP6dq  TDT3  1  3.400000e-01  3.750000e+00
TP5dq  TDT3  1  3.400000e-01  3.470000e+00
TP4dq  TDT3  1  3.400000e-01  3.470000e+00
TP3dq  TDT3  1  3.400000e-01  3.470000e+00
TP2dq  TDT3  1  3.400000e-01  3.470000e+00
TP1dq  TDT3  1  3.400000e-01  3.470000e+00
TP6dh  TDT3  1  3.400000e-01  3.220000e+00
TP5dh  TDT3  1  3.400000e-01  2.990000e+00
TP4dh  TDT3  1  3.400000e-01  2.990000e+00
TP3dh  TDT3  1  3.400000e-01  2.990000e+00
TP2dh  TDT3  1  3.400000e-01  2.990000e+00
TP1dh  TDT3  1  3.400000e-01  2.990000e+00
TP6dr  TDT3  1  3.400000e-01  3.220000e+00
TP5dr  TDT3  1  3.400000e-01  2.990000e+00
TP4dr  TDT3  1  3.400000e-01  2.990000e+00
TP3dr  TDT3  1  3.400000e-01  2.990000e+00
TP2dr  TDT3  1  3.400000e-01  2.990000e+00
TP1dr  TDT3  1  3.400000e-01  2.990000e+00
TDT3  TN6d  1  3.400000e-01  2.990000e+00
TDT3  TN5d  1  3.400000e-01  2.740000e+00
TDT3  TN4d  1  3.400000e-01  2.740000e+00
TDT3  TN3d  1  3.400000e-01  2.280000e+00
TDT3  TN2d  1  3.400000e-01  2.280000e+00
TDT3  TN1d  1  3.400000e-01  2.280000e+00
TDT3  TN6dq  1  3.400000e-01  3.470000e+00
TDT3  TN5dq  1  3.400000e-01  3.220000e+00
TDT3  TN4dq  1  3.400000e-01  3.220000e+00
TDT3  TN3dq  1  3.400000e-01  2.740000e+00
TDT3  TN2dq  1  3.400000e-01  2.740000e+00
TDT3  TN1dq  1  3.400000e-01  2.740000e+00
TDT3  TN6dh  1  3.400000e-01  2.990000e+00
TDT3  TN5dh  1  3.400000e-01  2.740000e+00
TDT3  TN4dh  1  3.400000e-01  2.740000e+00
TDT3  TN3dh  1  3.400000e-01  2.280000e+00
TDT3  TN2dh  1  3.400000e-01  2.280000e+00
TDT3  TN1dh  1  3.400000e-01  2.280000e+00
TDT3  TN6dr  1  3.400000e-01  2.990000e+00
TDT3  TN5dr  1  3.400000e-01  2.740000e+00
TDT3  TN4dr  1  3.400000e-01  2.740000e+00
TDT3  TN3dr  1  3.400000e-01  2.280000e+00
TDT3  TN2dr  1  3.400000e-01  2.280000e+00
TDT3  TN1dr  1  3.400000e-01  2.280000e+00
TDT3  TC6v  1  3.400000e-01  1.510000e+00
TDT3  TC5v  1  3.400000e-01  1.230000e+00
TDT3  TC4v  1  3.520000e-01  1.050000e+00
TDT3  TC3v  1  3.660000e-01  9.350000e-01
TDT3  TC2v  1  3.660000e-01  9.350000e-01
TDT3  TC1v  1  3.850000e-01  8.550000e-01
TDT3  TX4v  1  3.400000e-01  1.510000e+00
TDT3  TX3v  1  3.400000e-01  1.510000e+00
TDT3  TX2v  1  3.400000e-01  1.230000e+00
TDT3  TX1v  1  3.520000e-01  1.050000e+00
TDT3  TX1vq  1  3.400000e-01  1.510000e+00
TDT3  TX2vq  1  3.400000e-01  1.770000e+00
TDT3  TX3vq  1  3.400000e-01  2.020000e+00
TDT3  TX4vq  1  3.400000e-01  2.020000e+00
TDT3  TC1vq  1  3.520000e-01  1.050000e+00
TDT3  TC2vq  1  3.400000e-01  1.230000e+00
TDT3  TC3vq  1  3.400000e-01  1.230000e+00
TDT3  TC4vq  1  3.400000e-01  1.510000e+00
TDT3  TC5vq  1  3.400000e-01  1.770000e+00
TDT3  TC6vq  1  3.400000e-01  2.020000e+00
TDT3  TX1vh  1  3.520000e-01  1.050000e+00
TDT3  TX2vh  1  3.400000e-01  1.230000e+00
TDT3  TX3vh  1  3.400000e-01  1.510000e+00
TDT3  TX4vh  1  3.400000e-01  1.510000e+00
TDT3  TC1vh  1  3.850000e-01  8.550000e-01
TDT3  TC2vh  1  3.660000e-01  9.350000e-01
TDT3  TC3vh  1  3.660000e-01  9.350000e-01
TDT3  TC4vh  1  3.520000e-01  1.050000e+00
TDT3  TC5vh  1  3.400000e-01  1.230000e+00
TDT3  TC6vh  1  3.400000e-01  1.510000e+00
TDT3  TX1vr  1  3.520000e-01  1.050000e+00
TDT3  TX2vr  1  3.400000e-01  1.230000e+00
TDT3  TX3vr  1  3.400000e-01  1.510000e+00
TDT3  TX4vr  1  3.400000e-01  1.510000e+00
TDT3  TC1vr  1  3.850000e-01  8.550000e-01
TDT3  TC2vr  1  3.660000e-01  9.350000e-01
TDT3  TC3vr  1  3.660000e-01  9.350000e-01
TDT3  TC4vr  1  3.520000e-01  1.050000e+00
TDT3  TC5vr  1  3.400000e-01  1.230000e+00
TDT3  TC6vr  1  3.400000e-01  1.510000e+00
TDT3  TC6e  1  3.520000e-01  1.050000e+00
TDT3  TC5e  1  3.660000e-01  9.350000e-01
TDT3  TC4e  1  3.850000e-01  8.550000e-01
TDT3  TC3e  1  4.110000e-01  8.010000e-01
TDT3  TC2e  1  4.110000e-01  8.010000e-01
TDT3  TC1e  1  4.240000e-01  7.760000e-01
TDT3  TX4e  1  3.520000e-01  1.050000e+00
TDT3  TX3e  1  3.520000e-01  1.050000e+00
TDT3  TX2e  1  3.660000e-01  9.350000e-01
TDT3  TX1e  1  3.850000e-01  8.550000e-01
TDT3  TX1eq  1  3.520000e-01  1.050000e+00
TDT3  TX2eq  1  3.400000e-01  1.230000e+00
TDT3  TX3eq  1  3.400000e-01  1.510000e+00
TDT3  TX4eq  1  3.400000e-01  1.510000e+00
TDT3  TC1eq  1  3.850000e-01  8.550000e-01
TDT3  TC2eq  1  3.660000e-01  9.350000e-01
TDT3  TC3eq  1  3.660000e-01  9.350000e-01
TDT3  TC4eq  1  3.520000e-01  1.050000e+00
TDT3  TC5eq  1  3.400000e-01  1.230000e+00
TDT3  TC6eq  1  3.400000e-01  1.510000e+00
TDT3  TX1eh  1  3.850000e-01  8.550000e-01
TDT3  TX2eh  1  3.660000e-01  9.350000e-01
TDT3  TX3eh  1  3.520000e-01  1.050000e+00
TDT3  TX4eh  1  3.520000e-01  1.050000e+00
TDT3  TC1eh  1  4.240000e-01  7.760000e-01
TDT3  TC2eh  1  4.110000e-01  8.010000e-01
TDT3  TC3eh  1  4.110000e-01  8.010000e-01
TDT3  TC4eh  1  3.850000e-01  8.550000e-01
TDT3  TC5eh  1  3.660000e-01  9.350000e-01
TDT3  TC6eh  1  3.520000e-01  1.050000e+00
TDT3  TX1er  1  3.850000e-01  8.550000e-01
TDT3  TX2er  1  3.660000e-01  9.350000e-01
TDT3  TX3er  1  3.520000e-01  1.050000e+00
TDT3  TX4er  1  3.520000e-01  1.050000e+00
TDT3  TC1er  1  4.240000e-01  7.760000e-01
TDT3  TC2er  1  4.110000e-01  8.010000e-01
TDT3  TC3er  1  4.110000e-01  8.010000e-01
TDT3  TC4er  1  3.850000e-01  8.550000e-01
TDT3  TC5er  1  3.660000e-01  9.350000e-01
TDT3  TC6er  1  3.520000e-01  1.050000e+00
TDT3  TP1aq  1  3.400000e-01  2.500000e+00
TDT3  TN1aq  1  3.400000e-01  1.770000e+00
TDT3  TN2aq  1  3.400000e-01  1.770000e+00
TDT3  TN3aq  1  3.400000e-01  1.770000e+00
TDT3  TN4aq  1  3.400000e-01  2.280000e+00
TDT3  TN5aq  1  3.400000e-01  2.280000e+00
TDT3  TN6aq  1  3.400000e-01  2.500000e+00
TDT3  TP1ah  1  3.400000e-01  2.020000e+00
TDT3  TN1ah  1  3.400000e-01  1.230000e+00
TDT3  TN2ah  1  3.400000e-01  1.230000e+00
TDT3  TN3ah  1  3.400000e-01  1.230000e+00
TDT3  TN4ah  1  3.400000e-01  1.770000e+00
TDT3  TN5ah  1  3.400000e-01  1.770000e+00
TDT3  TN6ah  1  3.400000e-01  2.020000e+00
TDT3  TP1ar  1  3.400000e-01  2.020000e+00
TDT3  TN1ar  1  3.400000e-01  1.230000e+00
TDT3  TN2ar  1  3.400000e-01  1.230000e+00
TDT3  TN3ar  1  3.400000e-01  1.230000e+00
TDT3  TN4ar  1  3.400000e-01  1.770000e+00
TDT3  TN5ar  1  3.400000e-01  1.770000e+00
TDT3  TN6ar  1  3.400000e-01  2.020000e+00
TP6a  TDT3  1  3.400000e-01  2.280000e+00
TP5a  TDT3  1  3.400000e-01  2.020000e+00
TP4a  TDT3  1  3.400000e-01  2.020000e+00
TP3a  TDT3  1  3.400000e-01  2.020000e+00
TP2a  TDT3  1  3.400000e-01  2.020000e+00
TDT3  TP1a  1  3.400000e-01  2.020000e+00
TDT3  TN6a  1  3.400000e-01  2.020000e+00
TDT3  TN5a  1  3.400000e-01  1.770000e+00
TDT3  TN4a  1  3.400000e-01  1.770000e+00
TDT3  TN3a  1  3.400000e-01  1.230000e+00
TDT3  TN2a  1  3.400000e-01  1.230000e+00
TDT3  TN1a  1  3.400000e-01  1.230000e+00
TP6q  TDT3  1  3.400000e-01  2.990000e+00
TP5q  TDT3  1  3.400000e-01  2.740000e+00
TP4q  TDT3  1  3.400000e-01  2.740000e+00
TP3q  TDT3  1  3.400000e-01  2.740000e+00
TP2q  TDT3  1  3.400000e-01  2.740000e+00
TP1q  TDT3  1  3.400000e-01  2.740000e+00
TDT3  TN6q  1  3.400000e-01  2.740000e+00
TDT3  TN5q  1  3.400000e-01  2.500000e+00
TDT3  TN4q  1  3.400000e-01  2.500000e+00
TDT3  TN3q  1  3.400000e-01  2.020000e+00
TDT3  TN2q  1  3.400000e-01  2.020000e+00
TDT3  TN1q  1  3.400000e-01  2.020000e+00
TDT3  TC6q  1  3.400000e-01  1.770000e+00
TDT3  TC5q  1  3.400000e-01  1.510000e+00
TDT3  TC4q  1  3.400000e-01  1.230000e+00
TDT3  TC3q  1  3.520000e-01  1.050000e+00
TDT3  TC2q  1  3.520000e-01  1.050000e+00
TDT3  TC1q  1  3.660000e-01  9.350000e-01
TDT3  TX4q  1  3.400000e-01  1.770000e+00
TDT3  TX3q  1  3.400000e-01  1.770000e+00
TDT3  TX2q  1  3.400000e-01  1.510000e+00
TDT3  TX1q  1  3.400000e-01  1.230000e+00
TP6h  TDT3  1  3.400000e-01  2.500000e+00
TP5h  TDT3  1  3.400000e-01  2.280000e+00
TP4h  TDT3  1  3.400000e-01  2.280000e+00
TP3h  TDT3  1  3.400000e-01  2.280000e+00
TP2h  TDT3  1  3.400000e-01  2.280000e+00
TP1h  TDT3  1  3.400000e-01  2.280000e+00
TDT3  TN6h  1  3.400000e-01  2.280000e+00
TDT3  TN5h  1  3.400000e-01  2.020000e+00
TDT3  TN4h  1  3.400000e-01  2.020000e+00
TDT3  TN3h  1  3.400000e-01  1.510000e+00
TDT3  TN2h  1  3.400000e-01  1.510000e+00
TDT3  TN1h  1  3.400000e-01  1.510000e+00
TDT3  TC6h  1  3.400000e-01  1.230000e+00
TDT3  TC5h  1  3.520000e-01  1.050000e+00
TDT3  TC4h  1  3.660000e-01  9.350000e-01
TDT3  TC3h  1  3.850000e-01  8.550000e-01
TDT3  TC2h  1  3.850000e-01  8.550000e-01
TDT3  TC1h  1  4.110000e-01  8.010000e-01
TDT3  TX4h  1  3.400000e-01  1.230000e+00
TDT3  TX3h  1  3.400000e-01  1.230000e+00
TDT3  TX2h  1  3.520000e-01  1.050000e+00
TDT3  TX1h  1  3.660000e-01  9.350000e-01
TP6r  TDT3  1  3.400000e-01  2.500000e+00
TP5r  TDT3  1  3.400000e-01  2.280000e+00
TP4r  TDT3  1  3.400000e-01  2.280000e+00
TP3r  TDT3  1  3.400000e-01  2.280000e+00
TP2r  TDT3  1  3.400000e-01  2.280000e+00
TP1r  TDT3  1  3.400000e-01  2.280000e+00
TDT3  TN6r  1  3.400000e-01  2.280000e+00
TDT3  TN5r  1  3.400000e-01  2.020000e+00
TDT3  TN4r  1  3.400000e-01  2.020000e+00
TDT3  TN3r  1  3.400000e-01  1.510000e+00
TDT3  TN2r  1  3.400000e-01  1.510000e+00
TDT3  TN1r  1  3.400000e-01  1.510000e+00
TDT3  TC6r  1  3.400000e-01  1.230000e+00
TDT3  TC5r  1  3.520000e-01  1.050000e+00
TDT3  TC4r  1  3.660000e-01  9.350000e-01
TDT3  TC3r  1  3.850000e-01  8.550000e-01
TDT3  TC2r  1  3.850000e-01  8.550000e-01
TDT3  TC1r  1  4.110000e-01  8.010000e-01
TDT3  TX4r  1  3.400000e-01  1.230000e+00
TDT3  TX3r  1  3.400000e-01  1.230000e+00
TDT3  TX2r  1  3.520000e-01  1.050000e+00
TDT3  TX1r  1  3.660000e-01  9.350000e-01
TP6aq  TDT3  1  3.400000e-01  2.740000e+00
TP5aq  TDT3  1  3.400000e-01  2.500000e+00
TP4aq  TDT3  1  3.400000e-01  2.500000e+00
TP3aq  TDT3  1  3.400000e-01  2.500000e+00
TP2aq  TDT3  1  3.400000e-01  2.500000e+00
TP6ah  TDT3  1  3.400000e-01  2.280000e+00
TP5ah  TDT3  1  3.400000e-01  2.020000e+00
TP4ah  TDT3  1  3.400000e-01  2.020000e+00
TP3ah  TDT3  1  3.400000e-01  2.020000e+00
TP2ah  TDT3  1  3.400000e-01  2.020000e+00
TP6ar  TDT3  1  3.400000e-01  2.280000e+00
TP5ar  TDT3  1  3.400000e-01  2.020000e+00
TP4ar  TDT3  1  3.400000e-01  2.020000e+00
TP3ar  TDT3  1  3.400000e-01  2.020000e+00
TP2ar  TDT3  1  3.400000e-01  2.020000e+00
W  TDT3  1  3.850000e-01  3.100000e+00
SW  TDT3  1  3.750000e-01  2.430000e+00
TW  TDT3  1  3.450000e-01  2.370000e+00
TDT3  D  1  3.950000e-01  4.517000e+00
TDT3  SD  1  3.650000e-01  1.044900e+01
TDT3  TD  1  3.400000e-01  1.232200e+01
TDT3  Q5  1  3.950000e-01  4.027000e+00
TDT3  SQ5  1  3.650000e-01  5.329000e+00
TDT3  TQ5  1  3.400000e-01  7.299000e+00
TDT3  Q5p  1  3.950000e-01  4.587000e+00
TDT3  SQ5p  1  3.650000e-01  5.889000e+00
TDT3  TQ5p  1  3.400000e-01  8.059000e+00
TDT3  Q5n  1  3.950000e-01  3.787000e+00
TDT3  SQ5n  1  3.650000e-01  5.059000e+00
TDT3  TQ5n  1  3.400000e-01  7.049000e+00
TDT3  Q4  1  3.950000e-01  3.793000e+00
TDT3  SQ4  1  3.650000e-01  5.092000e+00
TDT3  TQ4  1  3.400000e-01  7.122000e+00
TDT3  Q4p  1  3.950000e-01  4.273000e+00
TDT3  SQ4p  1  3.650000e-01  5.632000e+00
TDT3  TQ4p  1  3.400000e-01  7.852000e+00
TDT3  Q4n  1  3.950000e-01  3.553000e+00
TDT3  SQ4n  1  3.650000e-01  4.822000e+00
TDT3  TQ4n  1  3.400000e-01  6.882000e+00
TDT3  Q3  1  3.950000e-01  3.572000e+00
TDT3  SQ3  1  3.650000e-01  4.928000e+00
TDT3  TQ3  1  3.400000e-01  7.115000e+00
TDT3  Q3p  1  3.950000e-01  4.052000e+00
TDT3  SQ3p  1  3.650000e-01  5.468000e+00
TDT3  TQ3p  1  3.400000e-01  7.835000e+00
TDT3  Q3n  1  3.950000e-01  3.322000e+00
TDT3  SQ3n  1  3.650000e-01  4.668000e+00
TDT3  TQ3n  1  3.400000e-01  6.895000e+00
TDT3  Q2  1  3.950000e-01  3.585000e+00
TDT3  SQ2  1  3.650000e-01  4.996000e+00
TDT3  TQ2  1  3.400000e-01  7.264000e+00
TDT3  Q2p  1  3.950000e-01  4.065000e+00
TDT3  SQ2p  1  3.650000e-01  5.536000e+00
TDT3  TQ2p  1  3.400000e-01  7.984000e+00
TDT3  Q2n  1  3.950000e-01  3.335000e+00
TDT3  SQ2n  1  3.650000e-01  4.736000e+00
TDT3  TQ2n  1  3.400000e-01  7.044000e+00
TDT3  Q1  1  3.950000e-01  3.831000e+00
TDT3  SQ1  1  3.650000e-01  5.302000e+00
TDT3  TQ1  1  3.400000e-01  7.585000e+00
TDT3  Q1p  1  3.950000e-01  4.311000e+00
TDT3  SQ1p  1  3.650000e-01  5.842000e+00
TDT3  TQ1p  1  3.400000e-01  8.315000e+00
TDT3  Q1n  1  3.950000e-01  3.591000e+00
TDT3  SQ1n  1  3.650000e-01  5.032000e+00
TDT3  TQ1n  1  3.400000e-01  7.345000e+00
