SEQDNA: EXPERIMENTAL / UNPUBLISHED DNA-ALPHA MODEL; rigidly translated, coordinates in nm
   94
    1G      BB2    1   2.095   1.023   1.000
    1G      BB3    2   2.099   1.151   1.245
    1G      SC1    3   1.876   1.250   1.176
    1G      SC2    4   2.030   1.485   1.193
    1G      SC3    5   2.150   1.738   1.211
    1G      SC4    6   1.921   1.751   1.215
    1G      SC5    7   1.756   1.650   1.209
    1G      SC6    8   1.800   1.429   1.191
    2C      BB1    9   2.336   1.000   1.335
    2C      BB2   10   2.482   1.299   1.338
    2C      BB3   11   2.409   1.404   1.583
    2C      SC1   12   2.106   1.327   1.516
    2C      SC2   13   2.184   1.633   1.529
    2C      SC3   14   2.015   1.582   1.536
    2C      SC4   15   1.822   1.474   1.540
    3A      BB1   16   2.690   1.422   1.673
    3A      BB2   17   2.633   1.749   1.676
    3A      BB3   18   2.511   1.791   1.922
    3A      SC1   19   2.349   1.611   1.853
    3A      SC2   20   2.171   1.827   1.869
    3A      SC3   21   1.978   1.895   1.885
    3A      SC4   22   1.896   1.573   1.887
    3A      SC5   23   2.156   1.594   1.867
    4T      BB1   24   2.729   1.971   2.011
    4T      BB2   25   2.490   2.202   2.014
    4T      BB3   26   2.367   2.165   2.260
    4T      SC1   27   2.301   1.947   2.192
    4T      SC2   28   2.079   2.021   2.205
    4T      SC3   29   2.029   1.833   2.216
    4T      SC4   30   2.143   1.677   2.213
    4T      SC5   31   2.408   1.703   2.193
    5C      BB1   32   2.437   2.438   2.349
    5C      BB2   33   2.108   2.484   2.352
    5C      BB3   34   2.030   2.382   2.597
    5C      SC1   35   2.197   2.117   2.530
    5C      SC2   36   1.882   2.098   2.543
    5C      SC3   37   1.983   1.952   2.550
    5C      SC4   38   2.145   1.802   2.554
    6G      BB1   39   1.841   2.628   2.733
    6G      BB2   40   1.633   2.488   2.690
    6G      BB3   41   1.630   2.360   2.935
    6G      SC1   42   1.852   2.261   2.866
    6G      SC2   43   1.699   2.026   2.883
    6G      SC3   44   1.579   1.773   2.901
    6G      SC4   45   1.807   1.760   2.905
    6G      SC5   46   1.973   1.861   2.899
    6G      SC6   47   1.928   2.081   2.881
    7C      BB2   48   1.633   1.023   3.123
    7C      BB3   49   1.630   1.151   2.878
    7C      SC1   50   1.921   1.267   2.945
    7C      SC2   51   1.678   1.468   2.931
    7C      SC3   52   1.844   1.527   2.925
    7C      SC4   53   2.064   1.553   2.921
    8G      BB1   54   1.392   1.000   2.788
    8G      BB2   55   1.247   1.299   2.785
    8G      BB3   56   1.320   1.404   2.540
    8G      SC1   57   1.558   1.353   2.609
    8G      SC2   58   1.571   1.634   2.592
    8G      SC3   59   1.623   1.909   2.574
    8G      SC4   60   1.816   1.785   2.570
    8G      SC5   61   1.890   1.606   2.576
    8G      SC6   62   1.724   1.454   2.594
    9A      BB1   63   1.038   1.422   2.450
    9A      BB2   64   1.096   1.749   2.447
    9A      BB3   65   1.217   1.791   2.200
    9A      SC1   66   1.380   1.611   2.269
    9A      SC2   67   1.557   1.827   2.254
    9A      SC3   68   1.751   1.895   2.238
    9A      SC4   69   1.833   1.573   2.236
    9A      SC5   70   1.572   1.594   2.256
   10T      BB1   71   1.000   1.971   2.112
   10T      BB2   72   1.239   2.202   2.109
   10T      BB3   73   1.362   2.165   1.863
   10T      SC1   74   1.428   1.947   1.931
   10T      SC2   75   1.649   2.021   1.917
   10T      SC3   76   1.700   1.833   1.907
   10T      SC4   77   1.585   1.677   1.910
   10T      SC5   78   1.321   1.703   1.929
   11G      BB1   79   1.292   2.438   1.774
   11G      BB2   80   1.621   2.484   1.771
   11G      BB3   81   1.699   2.382   1.526
   11G      SC1   82   1.577   2.171   1.595
   11G      SC2   83   1.839   2.072   1.578
   11G      SC3   84   2.085   1.937   1.560
   11G      SC4   85   1.908   1.792   1.555
   11G      SC5   86   1.715   1.777   1.562
   11G      SC6   87   1.621   1.982   1.580
   12C      BB1   88   1.888   2.628   1.390
   12C      BB2   89   2.095   2.488   1.433
   12C      BB3   90   2.099   2.360   1.188
   12C      SC1   91   1.808   2.244   1.255
   12C      SC2   92   2.051   2.043   1.241
   12C      SC3   93   1.884   1.984   1.235
   12C      SC4   94   1.665   1.958   1.231
   3.72860   3.62760   4.12260
