; MARTINI (martini30dna) Coarse Grained topology file for "SEQDNA"
; !!! EXPERIMENTAL / UNPUBLISHED DNA-ALPHA MODEL !!!
; This is not the published Martini 3 RNA model.
; Generated by nucleic_builder Phase 2B
; Polymer: canonical DNA
; Input mode: sequence-derived ideal B-form dsDNA
; Strand A (5'->3'): GCATCG
; Strand B (5'->3'): CGATGC
; Strand B paired orientation (3'->5'): CGTAGC
; Duplex orientation: strand A 5'->3'; strand B antiparallel 3'->5'
; Structure generator: AmberClassic NAB v2.0
; Structure generator repository: https://github.com/Amber-MD/AmberClassic
; Structure generator commit: bdb3e0dee5b90f2be2950e26cfad1ae5a7440cae
; Structure generator settings: fd_helix("abdna", sequence, "dna"); putpdb("-wwpdb")
; Intermediate PDB SHA-256: fb960d1cdfe84ec74e22e69b3c4c08d8de852f640d641ed98f7b5d3b85e6f028
; DNA-alpha upstream: https://github.com/DanYev/Martini-3-DNA-RNA
; DNA-alpha upstream commit: e761b7349fdf61dd485053c000dbb642f24ff9d8
; DNA-alpha converter: martinize_dna_alpha.py
; DNA-alpha parameters: dna_alpha_itps/
; Model status: experimental alpha; DNA publication is pending upstream
; License: GPL-3.0-only; see distribution LICENSE and nucleic_builder/_vendor/martini_3_dna_rna/NOTICE.md
; Elastic network policy: off
; Elastic bonds: 0; cross-chain elastic bonds: 0
; Chain mapping: <blank> (segment 1): input 1-6 => residues 1-6; <blank> (segment 2): input 7-12 => residues 7-12
; ####################################################################################################
; Sequence:
; GCATCGCGATGC
; Secondary Structure:
; FFFFFFFFFFFF

[ moleculetype ]
; Name         Exclusions
SEQDNA            1

[ atoms ]
    1    C5     1     G   BB2     1  0.0000 60.0000
    2   SN3     1     G   BB3     1  0.0000 60.0000
    3  TDG0     1     G   SC1     2  0.0000 50.0000
    4  TDG1     1     G   SC2     2  0.0000  0.0000
    5  TDG2     1     G   SC3     2  0.0000 50.0000
    6  TDG3     1     G   SC4     2  0.0000  0.0000
    7  TDG4     1     G   SC5     2  0.0000 50.0000
    8  TDG5     1     G   SC6     2  0.0000  0.0000
    9   Q1n     2     C   BB1    10 -1.0000 72.0000
   10    C5     2     C   BB2    10  0.0000 60.0000
   11   SN3     2     C   BB3    10  0.0000 60.0000
   12  TDY0     2     C   SC1    11  0.0000 37.0000
   13  TDY1     2     C   SC2    11  0.0000 37.0000
   14  TDY2     2     C   SC3    11  0.0000  0.0000
   15  TDY3     2     C   SC4    11  0.0000 37.0000
   16   Q1n     3     A   BB1    17 -1.0000 72.0000
   17    C5     3     A   BB2    17  0.0000 60.0000
   18   SN3     3     A   BB3    17  0.0000 60.0000
   19  TDA0     3     A   SC1    18  0.0000 45.0000
   20  TDA1     3     A   SC2    18  0.0000  0.0000
   21  TDA2     3     A   SC3    18  0.0000 45.0000
   22  TDA3     3     A   SC4    18  0.0000 45.0000
   23  TDA4     3     A   SC5    18  0.0000  0.0000
   24   Q1n     4     T   BB1    25 -1.0000 72.0000
   25    C5     4     T   BB2    25  0.0000 60.0000
   26   SN3     4     T   BB3    25  0.0000 60.0000
   27  TDT0     4     T   SC1    26  0.0000 50.0000
   28  TDT1     4     T   SC2    26  0.0000 50.0000
   29  TDT2     4     T   SC3    26  0.0000  0.0000
   30  TDT3     4     T   SC4    26  0.0000 50.0000
   31   TC3     4     T   SC5    26  0.0000  0.0000
   32   Q1n     5     C   BB1    33 -1.0000 72.0000
   33    C5     5     C   BB2    33  0.0000 60.0000
   34   SN3     5     C   BB3    33  0.0000 60.0000
   35  TDY0     5     C   SC1    34  0.0000 37.0000
   36  TDY1     5     C   SC2    34  0.0000 37.0000
   37  TDY2     5     C   SC3    34  0.0000  0.0000
   38  TDY3     5     C   SC4    34  0.0000 37.0000
   39   Q1n     6     G   BB1    40 -1.0000 72.0000
   40    C5     6     G   BB2    40  0.0000 60.0000
   41   SN3     6     G   BB3    40  0.0000 60.0000
   42  TDG0     6     G   SC1    41  0.0000 50.0000
   43  TDG1     6     G   SC2    41  0.0000  0.0000
   44  TDG2     6     G   SC3    41  0.0000 50.0000
   45  TDG3     6     G   SC4    41  0.0000  0.0000
   46  TDG4     6     G   SC5    41  0.0000 50.0000
   47  TDG5     6     G   SC6    41  0.0000  0.0000
   48    C5     7     C   BB2    48  0.0000 60.0000
   49   SN3     7     C   BB3    48  0.0000 60.0000
   50  TDY0     7     C   SC1    49  0.0000 37.0000
   51  TDY1     7     C   SC2    49  0.0000 37.0000
   52  TDY2     7     C   SC3    49  0.0000  0.0000
   53  TDY3     7     C   SC4    49  0.0000 37.0000
   54   Q1n     8     G   BB1    55 -1.0000 72.0000
   55    C5     8     G   BB2    55  0.0000 60.0000
   56   SN3     8     G   BB3    55  0.0000 60.0000
   57  TDG0     8     G   SC1    56  0.0000 50.0000
   58  TDG1     8     G   SC2    56  0.0000  0.0000
   59  TDG2     8     G   SC3    56  0.0000 50.0000
   60  TDG3     8     G   SC4    56  0.0000  0.0000
   61  TDG4     8     G   SC5    56  0.0000 50.0000
   62  TDG5     8     G   SC6    56  0.0000  0.0000
   63   Q1n     9     A   BB1    64 -1.0000 72.0000
   64    C5     9     A   BB2    64  0.0000 60.0000
   65   SN3     9     A   BB3    64  0.0000 60.0000
   66  TDA0     9     A   SC1    65  0.0000 45.0000
   67  TDA1     9     A   SC2    65  0.0000  0.0000
   68  TDA2     9     A   SC3    65  0.0000 45.0000
   69  TDA3     9     A   SC4    65  0.0000 45.0000
   70  TDA4     9     A   SC5    65  0.0000  0.0000
   71   Q1n    10     T   BB1    72 -1.0000 72.0000
   72    C5    10     T   BB2    72  0.0000 60.0000
   73   SN3    10     T   BB3    72  0.0000 60.0000
   74  TDT0    10     T   SC1    73  0.0000 50.0000
   75  TDT1    10     T   SC2    73  0.0000 50.0000
   76  TDT2    10     T   SC3    73  0.0000  0.0000
   77  TDT3    10     T   SC4    73  0.0000 50.0000
   78   TC3    10     T   SC5    73  0.0000  0.0000
   79   Q1n    11     G   BB1    80 -1.0000 72.0000
   80    C5    11     G   BB2    80  0.0000 60.0000
   81   SN3    11     G   BB3    80  0.0000 60.0000
   82  TDG0    11     G   SC1    81  0.0000 50.0000
   83  TDG1    11     G   SC2    81  0.0000  0.0000
   84  TDG2    11     G   SC3    81  0.0000 50.0000
   85  TDG3    11     G   SC4    81  0.0000  0.0000
   86  TDG4    11     G   SC5    81  0.0000 50.0000
   87  TDG5    11     G   SC6    81  0.0000  0.0000
   88   Q1n    12     C   BB1    89 -1.0000 72.0000
   89    C5    12     C   BB2    89  0.0000 60.0000
   90   SN3    12     C   BB3    89  0.0000 60.0000
   91  TDY0    12     C   SC1    90  0.0000 37.0000
   92  TDY1    12     C   SC2    90  0.0000 37.0000
   93  TDY2    12     C   SC3    90  0.0000  0.0000
   94  TDY3    12     C   SC4    90  0.0000 37.0000

[ bonds ]
    1       2    1    0.2744     30000 ; BB2-BB3
    1       9    1    0.5104   2552.2761 ; BB2-BB1n
    2       9    1    0.4153   2420.2505 ; BB3-BB1n
    9      10    1    0.2354     30000 ; BB1-BB2
   10      11    1    0.2744     30000 ; BB2-BB3
   10      16    1    0.5104   2552.2761 ; BB2-BB1n
   11      16    1    0.4153   2420.2505 ; BB3-BB1n
   16      17    1    0.2354     30000 ; BB1-BB2
   17      18    1    0.2744     30000 ; BB2-BB3
   17      24    1    0.5104   2552.2761 ; BB2-BB1n
   18      24    1    0.4153   2420.2505 ; BB3-BB1n
   24      25    1    0.2354     30000 ; BB1-BB2
   25      26    1    0.2744     30000 ; BB2-BB3
   25      32    1    0.5104   2552.2761 ; BB2-BB1n
   26      32    1    0.4153   2420.2505 ; BB3-BB1n
   32      33    1    0.2354     30000 ; BB1-BB2
   33      34    1    0.2744     30000 ; BB2-BB3
   33      39    1    0.5104   2552.2761 ; BB2-BB1n
   34      39    1    0.4153   2420.2505 ; BB3-BB1n
   39      40    1    0.2354     30000 ; BB1-BB2
   40      41    1    0.2744     30000 ; BB2-BB3
    1       3    1    0.4019   3168.3371 ; BB2-SC1
    2       3    1    0.2516   19181.0102 ; BB3-SC1
    2       4    1    0.3372   10531.0964 ; BB3-SC2
   10      12    1    0.4686   3910.5191 ; BB2-SC1
   11      12    1    0.3258   21644.8594 ; BB3-SC1
   11      13    1    0.3204   8852.4346 ; BB3-SC2
   17      19    1    0.3971   3233.2629 ; BB2-SC1
   18      19    1    0.2510   21485.9561 ; BB3-SC1
   18      20    1    0.3390   13106.5531 ; BB3-SC2
   25      27    1    0.4090   13986.5806 ; BB2-SC1
   26      27    1    0.2400     30000 ; BB3-SC1
   26      28    1    0.3225   10196.9863 ; BB3-SC2
   33      35    1    0.4686   3910.5191 ; BB2-SC1
   34      35    1    0.3258   21644.8594 ; BB3-SC1
   34      36    1    0.3204   8852.4346 ; BB3-SC2
   40      42    1    0.4019   3168.3371 ; BB2-SC1
   41      42    1    0.2516   19181.0102 ; BB3-SC1
   41      43    1    0.3372   10531.0964 ; BB3-SC2
   48      49    1    0.2744     30000 ; BB2-BB3
   48      54    1    0.5104   2552.2761 ; BB2-BB1n
   49      54    1    0.4153   2420.2505 ; BB3-BB1n
   54      55    1    0.2354     30000 ; BB1-BB2
   55      56    1    0.2744     30000 ; BB2-BB3
   55      63    1    0.5104   2552.2761 ; BB2-BB1n
   56      63    1    0.4153   2420.2505 ; BB3-BB1n
   63      64    1    0.2354     30000 ; BB1-BB2
   64      65    1    0.2744     30000 ; BB2-BB3
   64      71    1    0.5104   2552.2761 ; BB2-BB1n
   65      71    1    0.4153   2420.2505 ; BB3-BB1n
   71      72    1    0.2354     30000 ; BB1-BB2
   72      73    1    0.2744     30000 ; BB2-BB3
   72      79    1    0.5104   2552.2761 ; BB2-BB1n
   73      79    1    0.4153   2420.2505 ; BB3-BB1n
   79      80    1    0.2354     30000 ; BB1-BB2
   80      81    1    0.2744     30000 ; BB2-BB3
   80      88    1    0.5104   2552.2761 ; BB2-BB1n
   81      88    1    0.4153   2420.2505 ; BB3-BB1n
   88      89    1    0.2354     30000 ; BB1-BB2
   89      90    1    0.2744     30000 ; BB2-BB3
   48      50    1    0.4686   3910.5191 ; BB2-SC1
   49      50    1    0.3258   21644.8594 ; BB3-SC1
   49      51    1    0.3204   8852.4346 ; BB3-SC2
   55      57    1    0.4019   3168.3371 ; BB2-SC1
   56      57    1    0.2516   19181.0102 ; BB3-SC1
   56      58    1    0.3372   10531.0964 ; BB3-SC2
   64      66    1    0.3971   3233.2629 ; BB2-SC1
   65      66    1    0.2510   21485.9561 ; BB3-SC1
   65      67    1    0.3390   13106.5531 ; BB3-SC2
   72      74    1    0.4090   13986.5806 ; BB2-SC1
   73      74    1    0.2400     30000 ; BB3-SC1
   73      75    1    0.3225   10196.9863 ; BB3-SC2
   80      82    1    0.4019   3168.3371 ; BB2-SC1
   81      82    1    0.2516   19181.0102 ; BB3-SC1
   81      83    1    0.3372   10531.0964 ; BB3-SC2
   89      91    1    0.4686   3910.5191 ; BB2-SC1
   90      91    1    0.3258   21644.8594 ; BB3-SC1
   90      92    1    0.3204   8852.4346 ; BB3-SC2

[ angles ]
    1       9      10   10   109.6404   156.3397 ; BB2-BB1n-BB2n
    9      10      16   10   125.1247   89.5156 ; BB1-BB2-BB1n
   10      16      17   10   109.6404   156.3397 ; BB2-BB1n-BB2n
    9      10      11   10   104.9346   63.2648 ; BB1-BB2-BB3
   16      17      24   10   125.1247   89.5156 ; BB1-BB2-BB1n
   17      24      25   10   109.6404   156.3397 ; BB2-BB1n-BB2n
   16      17      18   10   104.9346   63.2648 ; BB1-BB2-BB3
   24      25      32   10   125.1247   89.5156 ; BB1-BB2-BB1n
   25      32      33   10   109.6404   156.3397 ; BB2-BB1n-BB2n
   24      25      26   10   104.9346   63.2648 ; BB1-BB2-BB3
   32      33      39   10   125.1247   89.5156 ; BB1-BB2-BB1n
   33      39      40   10   109.6404   156.3397 ; BB2-BB1n-BB2n
   32      33      34   10   104.9346   63.2648 ; BB1-BB2-BB3
   39      40      41   10   104.9346   63.2648 ; BB1-BB2-BB3
    1       2       3   10   100.8272   56.7704 ; BB2-BB3-SC1
    2       1       9    1   55.2769   62.8746 ; BB3-BB2-BB1n
    2       3       5   10   82.0560   270.0886 ; BB3-SC1-SC3
    2       3       7   10   123.6997   249.7788 ; BB3-SC1-SC5
   10      11      12   10   102.9196   83.6705 ; BB2-BB3-SC1
   11      10      16    1   53.8485   99.7192 ; BB3-BB2-BB1n
   11      12      13   10   60.1022   467.4517 ; BB3-SC1-SC2
   11      12      15   10   131.9626   420.1788 ; BB3-SC1-SC4
   17      18      19   10   98.9665   59.3569 ; BB2-BB3-SC1
   18      17      24    1   54.3895   74.0748 ; BB3-BB2-BB1n
   18      19      21   10   91.2221   331.7186 ; BB3-SC1-SC3
   18      19      22   10   128.2552   297.0931 ; BB3-SC1-SC4
   25      26      27   10   105.1739   194.1906 ; BB2-BB3-SC1
   26      25      31    1   50.4189   192.9398 ; BB3-BB2-BB1n
   26      27      28   10   85.2273   263.4119 ; BB3-SC1-SC2
   26      27      30   10   153.7865   211.7081 ; BB3-SC1-SC4
   33      34      35   10   102.9196   83.6705 ; BB2-BB3-SC1
   34      33      39    1   53.8485   99.7192 ; BB3-BB2-BB1n
   34      35      36   10   60.1022   467.4517 ; BB3-SC1-SC2
   34      35      38   10   131.9626   420.1788 ; BB3-SC1-SC4
   40      41      42   10   100.8272   56.7704 ; BB2-BB3-SC1
   41      42      44   10   82.0560   270.0886 ; BB3-SC1-SC3
   41      42      46   10   123.6997   249.7788 ; BB3-SC1-SC5
   48      54      55   10   109.6404   156.3397 ; BB2-BB1n-BB2n
   54      55      63   10   125.1247   89.5156 ; BB1-BB2-BB1n
   55      63      64   10   109.6404   156.3397 ; BB2-BB1n-BB2n
   54      55      56   10   104.9346   63.2648 ; BB1-BB2-BB3
   63      64      71   10   125.1247   89.5156 ; BB1-BB2-BB1n
   64      71      72   10   109.6404   156.3397 ; BB2-BB1n-BB2n
   63      64      65   10   104.9346   63.2648 ; BB1-BB2-BB3
   71      72      79   10   125.1247   89.5156 ; BB1-BB2-BB1n
   72      79      80   10   109.6404   156.3397 ; BB2-BB1n-BB2n
   71      72      73   10   104.9346   63.2648 ; BB1-BB2-BB3
   79      80      88   10   125.1247   89.5156 ; BB1-BB2-BB1n
   80      88      89   10   109.6404   156.3397 ; BB2-BB1n-BB2n
   79      80      81   10   104.9346   63.2648 ; BB1-BB2-BB3
   88      89      90   10   104.9346   63.2648 ; BB1-BB2-BB3
   48      49      50   10   102.9196   83.6705 ; BB2-BB3-SC1
   49      48      54    1   53.8485   99.7192 ; BB3-BB2-BB1n
   49      50      51   10   60.1022   467.4517 ; BB3-SC1-SC2
   49      50      53   10   131.9626   420.1788 ; BB3-SC1-SC4
   55      56      57   10   100.8272   56.7704 ; BB2-BB3-SC1
   56      55      63    1   55.2769   62.8746 ; BB3-BB2-BB1n
   56      57      59   10   82.0560   270.0886 ; BB3-SC1-SC3
   56      57      61   10   123.6997   249.7788 ; BB3-SC1-SC5
   64      65      66   10   98.9665   59.3569 ; BB2-BB3-SC1
   65      64      71    1   54.3895   74.0748 ; BB3-BB2-BB1n
   65      66      68   10   91.2221   331.7186 ; BB3-SC1-SC3
   65      66      69   10   128.2552   297.0931 ; BB3-SC1-SC4
   72      73      74   10   105.1739   194.1906 ; BB2-BB3-SC1
   73      72      78    1   50.4189   192.9398 ; BB3-BB2-BB1n
   73      74      75   10   85.2273   263.4119 ; BB3-SC1-SC2
   73      74      77   10   153.7865   211.7081 ; BB3-SC1-SC4
   80      81      82   10   100.8272   56.7704 ; BB2-BB3-SC1
   81      80      88    1   55.2769   62.8746 ; BB3-BB2-BB1n
   81      82      84   10   82.0560   270.0886 ; BB3-SC1-SC3
   81      82      86   10   123.6997   249.7788 ; BB3-SC1-SC5
   89      90      91   10   102.9196   83.6705 ; BB2-BB3-SC1
   90      91      92   10   60.1022   467.4517 ; BB3-SC1-SC2
   90      91      94   10   131.9626   420.1788 ; BB3-SC1-SC4

[ dihedrals ]
    9      10      16      17    9   52.0027    4.0472         1 ; BB1-BB2-BB1n-BB2n
    1       9      10      16    9   -26.4825   44.9555         1 ; BB2p-BB1-BB2-BB1n
    1       9      10      11    9   -74.9287   24.7797         1 ; BB2p-BB1-BB2-BB3
   16      17      24      25    9   52.0027    4.0472         1 ; BB1-BB2-BB1n-BB2n
   10      16      17      24    9   -26.4825   44.9555         1 ; BB2p-BB1-BB2-BB1n
   10      16      17      18    9   -74.9287   24.7797         1 ; BB2p-BB1-BB2-BB3
   24      25      32      33    9   52.0027    4.0472         1 ; BB1-BB2-BB1n-BB2n
   17      24      25      32    9   -26.4825   44.9555         1 ; BB2p-BB1-BB2-BB1n
   17      24      25      26    9   -74.9287   24.7797         1 ; BB2p-BB1-BB2-BB3
   32      33      39      40    9   52.0027    4.0472         1 ; BB1-BB2-BB1n-BB2n
   25      32      33      39    9   -26.4825   44.9555         1 ; BB2p-BB1-BB2-BB1n
   25      32      33      34    9   -74.9287   24.7797         1 ; BB2p-BB1-BB2-BB3
   33      39      40      41    9   -74.9287   24.7797         1 ; BB2p-BB1-BB2-BB3
    1       2       3       5    9   44.9685   33.7238         1 ; BB2-BB3-SC1-SC3
    1       2       3       5    9   65.3536    1.3401         2 ; BB2-BB3-SC1-SC3
    1       2       3       5    9   -62.6352    5.5825         3 ; BB2-BB3-SC1-SC3
    1       2       3       5    9   14.6528    6.6433         4 ; BB2-BB3-SC1-SC3
    1       2       3       5    9   54.8864    5.6988         5 ; BB2-BB3-SC1-SC3
    1       2       3       5    9   81.3808    3.5712         6 ; BB2-BB3-SC1-SC3
    1       2       3       7    9   36.7771   21.4901         1 ; BB2-BB3-SC1-SC5
    2       1       9      10    9   123.5237   33.6344         1 ; BB3-BB2-BB1n-BB2n
    2       1       9      10    9   -101.9504    4.3183         2 ; BB3-BB2-BB1n-BB2n
    2       1       9      10    9   -157.0745    4.7261         3 ; BB3-BB2-BB1n-BB2n
    2       1       9      10    9   -60.4051    6.1967         4 ; BB3-BB2-BB1n-BB2n
    2       1       9      10    9   39.1643    5.3114         5 ; BB3-BB2-BB1n-BB2n
    2       1       9      10    9   -177.3798    2.4000         6 ; BB3-BB2-BB1n-BB2n
    2       3       5       7    9   18.4453   93.9959         1 ; BB3-SC1-SC3-SC5
    2       3       7       5    9   -157.3612   71.6109         1 ; BB3-SC1-SC5-SC3
    3       2       1       9    9   -8.5063   62.5712         1 ; SC1-BB3-BB2-BB1n
    9      10      11      12    9   112.5838   15.4595         1 ; BB1-BB2-BB3-SC1
   10      11      12      13    9   58.3144   37.2927         1 ; BB2-BB3-SC1-SC2
   10      11      12      15    9   36.5759   34.4515         1 ; BB2-BB3-SC1-SC4
   11      10      16      17    9   137.2195   29.6031         1 ; BB3-BB2-BB1n-BB2n
   11      10      16      17    9   -70.9438   10.4535         2 ; BB3-BB2-BB1n-BB2n
   11      10      16      17    9   25.2523    3.8842         3 ; BB3-BB2-BB1n-BB2n
   11      10      16      17    9   64.6030    2.5675         4 ; BB3-BB2-BB1n-BB2n
   11      10      16      17    9   114.6070    1.8699         5 ; BB3-BB2-BB1n-BB2n
   11      10      16      17    9   -118.2305    1.7678         6 ; BB3-BB2-BB1n-BB2n
   11      12      13      15    9   14.9873   113.2946         1 ; BB3-SC1-SC2-SC4
   11      12      15      13    9   -161.9439   85.3722         1 ; BB3-SC1-SC4-SC2
   12      11      10      16    9   -0.6342   27.9701         1 ; SC1-BB3-BB2-BB1n
   16      17      18      19    9   124.1838   33.9676         1 ; BB1-BB2-BB3-SC1
   17      18      19      21    9   45.3712   32.7413         1 ; BB2-BB3-SC1-SC3
   17      18      19      21    9   73.6584    5.0202         2 ; BB2-BB3-SC1-SC3
   17      18      19      21    9   -70.6838    2.8366         3 ; BB2-BB3-SC1-SC3
   17      18      19      21    9   -0.8362   10.2865         4 ; BB2-BB3-SC1-SC3
   17      18      19      21    9   36.7654   10.6051         5 ; BB2-BB3-SC1-SC3
   17      18      19      21    9   73.2332    5.3604         6 ; BB2-BB3-SC1-SC3
   17      18      19      22    9   35.5910   27.8763         1 ; BB2-BB3-SC1-SC4
   18      17      24      25    9   117.6924   33.8411         1 ; BB3-BB2-BB1n-BB2n
   18      17      24      25    9   -124.2244    1.9453         2 ; BB3-BB2-BB1n-BB2n
   18      17      24      25    9   -177.8491    4.7184         3 ; BB3-BB2-BB1n-BB2n
   18      17      24      25    9   -74.8896    6.6419         4 ; BB3-BB2-BB1n-BB2n
   18      17      24      25    9   30.3969    7.2002         5 ; BB3-BB2-BB1n-BB2n
   18      17      24      25    9   171.6458    2.9756         6 ; BB3-BB2-BB1n-BB2n
   18      19      21      22    9   18.1419   101.7138         1 ; BB3-SC1-SC3-SC4
   18      19      22      21    9   -155.9187   67.3960         1 ; BB3-SC1-SC4-SC3
   19      18      17      24    9   -5.0589   55.1599         1 ; SC1-BB3-BB2-BB1n
   24      25      26      27    9   104.8950   72.3213         1 ; BB1-BB2-BB3-SC1
   25      26      27      28    9   61.6773   44.8971         1 ; BB2-BB3-SC1-SC2
   25      26      27      30    9   17.7967   42.2149         1 ; BB2-BB3-SC1-SC4
   26      25      31      32    9   169.2145   56.8279         1 ; BB3-BB2-BB1n-BB2n
   26      27      28      30    9   16.1810   104.0726         1 ; BB3-SC1-SC2-SC4
   26      27      30      28    9   -136.2088   24.2245         1 ; BB3-SC1-SC4-SC2
   27      26      25      31    9   156.0431   675.3225         1 ; SC1-BB3-BB2-BB1n
   32      33      34      35    9   112.5838   15.4595         1 ; BB1-BB2-BB3-SC1
   33      34      35      36    9   58.3144   37.2927         1 ; BB2-BB3-SC1-SC2
   33      34      35      38    9   36.5759   34.4515         1 ; BB2-BB3-SC1-SC4
   34      33      39      40    9   137.2195   29.6031         1 ; BB3-BB2-BB1n-BB2n
   34      33      39      40    9   -70.9438   10.4535         2 ; BB3-BB2-BB1n-BB2n
   34      33      39      40    9   25.2523    3.8842         3 ; BB3-BB2-BB1n-BB2n
   34      33      39      40    9   64.6030    2.5675         4 ; BB3-BB2-BB1n-BB2n
   34      33      39      40    9   114.6070    1.8699         5 ; BB3-BB2-BB1n-BB2n
   34      33      39      40    9   -118.2305    1.7678         6 ; BB3-BB2-BB1n-BB2n
   34      35      36      38    9   14.9873   113.2946         1 ; BB3-SC1-SC2-SC4
   34      35      38      36    9   -161.9439   85.3722         1 ; BB3-SC1-SC4-SC2
   35      34      33      39    9   -0.6342   27.9701         1 ; SC1-BB3-BB2-BB1n
   39      40      41      42    9   123.8659   16.2076         1 ; BB1-BB2-BB3-SC1
   40      41      42      44    9   44.9685   33.7238         1 ; BB2-BB3-SC1-SC3
   40      41      42      44    9   65.3536    1.3401         2 ; BB2-BB3-SC1-SC3
   40      41      42      44    9   -62.6352    5.5825         3 ; BB2-BB3-SC1-SC3
   40      41      42      44    9   14.6528    6.6433         4 ; BB2-BB3-SC1-SC3
   40      41      42      44    9   54.8864    5.6988         5 ; BB2-BB3-SC1-SC3
   40      41      42      44    9   81.3808    3.5712         6 ; BB2-BB3-SC1-SC3
   40      41      42      46    9   36.7771   21.4901         1 ; BB2-BB3-SC1-SC5
   41      42      44      46    9   18.4453   93.9959         1 ; BB3-SC1-SC3-SC5
   41      42      46      44    9   -157.3612   71.6109         1 ; BB3-SC1-SC5-SC3
   54      55      63      64    9   52.0027    4.0472         1 ; BB1-BB2-BB1n-BB2n
   48      54      55      63    9   -26.4825   44.9555         1 ; BB2p-BB1-BB2-BB1n
   48      54      55      56    9   -74.9287   24.7797         1 ; BB2p-BB1-BB2-BB3
   63      64      71      72    9   52.0027    4.0472         1 ; BB1-BB2-BB1n-BB2n
   55      63      64      71    9   -26.4825   44.9555         1 ; BB2p-BB1-BB2-BB1n
   55      63      64      65    9   -74.9287   24.7797         1 ; BB2p-BB1-BB2-BB3
   71      72      79      80    9   52.0027    4.0472         1 ; BB1-BB2-BB1n-BB2n
   64      71      72      79    9   -26.4825   44.9555         1 ; BB2p-BB1-BB2-BB1n
   64      71      72      73    9   -74.9287   24.7797         1 ; BB2p-BB1-BB2-BB3
   79      80      88      89    9   52.0027    4.0472         1 ; BB1-BB2-BB1n-BB2n
   72      79      80      88    9   -26.4825   44.9555         1 ; BB2p-BB1-BB2-BB1n
   72      79      80      81    9   -74.9287   24.7797         1 ; BB2p-BB1-BB2-BB3
   80      88      89      90    9   -74.9287   24.7797         1 ; BB2p-BB1-BB2-BB3
   48      49      50      51    9   58.3144   37.2927         1 ; BB2-BB3-SC1-SC2
   48      49      50      53    9   36.5759   34.4515         1 ; BB2-BB3-SC1-SC4
   49      48      54      55    9   137.2195   29.6031         1 ; BB3-BB2-BB1n-BB2n
   49      48      54      55    9   -70.9438   10.4535         2 ; BB3-BB2-BB1n-BB2n
   49      48      54      55    9   25.2523    3.8842         3 ; BB3-BB2-BB1n-BB2n
   49      48      54      55    9   64.6030    2.5675         4 ; BB3-BB2-BB1n-BB2n
   49      48      54      55    9   114.6070    1.8699         5 ; BB3-BB2-BB1n-BB2n
   49      48      54      55    9   -118.2305    1.7678         6 ; BB3-BB2-BB1n-BB2n
   49      50      51      53    9   14.9873   113.2946         1 ; BB3-SC1-SC2-SC4
   49      50      53      51    9   -161.9439   85.3722         1 ; BB3-SC1-SC4-SC2
   50      49      48      54    9   -0.6342   27.9701         1 ; SC1-BB3-BB2-BB1n
   54      55      56      57    9   123.8659   16.2076         1 ; BB1-BB2-BB3-SC1
   55      56      57      59    9   44.9685   33.7238         1 ; BB2-BB3-SC1-SC3
   55      56      57      59    9   65.3536    1.3401         2 ; BB2-BB3-SC1-SC3
   55      56      57      59    9   -62.6352    5.5825         3 ; BB2-BB3-SC1-SC3
   55      56      57      59    9   14.6528    6.6433         4 ; BB2-BB3-SC1-SC3
   55      56      57      59    9   54.8864    5.6988         5 ; BB2-BB3-SC1-SC3
   55      56      57      59    9   81.3808    3.5712         6 ; BB2-BB3-SC1-SC3
   55      56      57      61    9   36.7771   21.4901         1 ; BB2-BB3-SC1-SC5
   56      55      63      64    9   123.5237   33.6344         1 ; BB3-BB2-BB1n-BB2n
   56      55      63      64    9   -101.9504    4.3183         2 ; BB3-BB2-BB1n-BB2n
   56      55      63      64    9   -157.0745    4.7261         3 ; BB3-BB2-BB1n-BB2n
   56      55      63      64    9   -60.4051    6.1967         4 ; BB3-BB2-BB1n-BB2n
   56      55      63      64    9   39.1643    5.3114         5 ; BB3-BB2-BB1n-BB2n
   56      55      63      64    9   -177.3798    2.4000         6 ; BB3-BB2-BB1n-BB2n
   56      57      59      61    9   18.4453   93.9959         1 ; BB3-SC1-SC3-SC5
   56      57      61      59    9   -157.3612   71.6109         1 ; BB3-SC1-SC5-SC3
   57      56      55      63    9   -8.5063   62.5712         1 ; SC1-BB3-BB2-BB1n
   63      64      65      66    9   124.1838   33.9676         1 ; BB1-BB2-BB3-SC1
   64      65      66      68    9   45.3712   32.7413         1 ; BB2-BB3-SC1-SC3
   64      65      66      68    9   73.6584    5.0202         2 ; BB2-BB3-SC1-SC3
   64      65      66      68    9   -70.6838    2.8366         3 ; BB2-BB3-SC1-SC3
   64      65      66      68    9   -0.8362   10.2865         4 ; BB2-BB3-SC1-SC3
   64      65      66      68    9   36.7654   10.6051         5 ; BB2-BB3-SC1-SC3
   64      65      66      68    9   73.2332    5.3604         6 ; BB2-BB3-SC1-SC3
   64      65      66      69    9   35.5910   27.8763         1 ; BB2-BB3-SC1-SC4
   65      64      71      72    9   117.6924   33.8411         1 ; BB3-BB2-BB1n-BB2n
   65      64      71      72    9   -124.2244    1.9453         2 ; BB3-BB2-BB1n-BB2n
   65      64      71      72    9   -177.8491    4.7184         3 ; BB3-BB2-BB1n-BB2n
   65      64      71      72    9   -74.8896    6.6419         4 ; BB3-BB2-BB1n-BB2n
   65      64      71      72    9   30.3969    7.2002         5 ; BB3-BB2-BB1n-BB2n
   65      64      71      72    9   171.6458    2.9756         6 ; BB3-BB2-BB1n-BB2n
   65      66      68      69    9   18.1419   101.7138         1 ; BB3-SC1-SC3-SC4
   65      66      69      68    9   -155.9187   67.3960         1 ; BB3-SC1-SC4-SC3
   66      65      64      71    9   -5.0589   55.1599         1 ; SC1-BB3-BB2-BB1n
   71      72      73      74    9   104.8950   72.3213         1 ; BB1-BB2-BB3-SC1
   72      73      74      75    9   61.6773   44.8971         1 ; BB2-BB3-SC1-SC2
   72      73      74      77    9   17.7967   42.2149         1 ; BB2-BB3-SC1-SC4
   73      72      78      79    9   169.2145   56.8279         1 ; BB3-BB2-BB1n-BB2n
   73      74      75      77    9   16.1810   104.0726         1 ; BB3-SC1-SC2-SC4
   73      74      77      75    9   -136.2088   24.2245         1 ; BB3-SC1-SC4-SC2
   74      73      72      78    9   156.0431   675.3225         1 ; SC1-BB3-BB2-BB1n
   79      80      81      82    9   123.8659   16.2076         1 ; BB1-BB2-BB3-SC1
   80      81      82      84    9   44.9685   33.7238         1 ; BB2-BB3-SC1-SC3
   80      81      82      84    9   65.3536    1.3401         2 ; BB2-BB3-SC1-SC3
   80      81      82      84    9   -62.6352    5.5825         3 ; BB2-BB3-SC1-SC3
   80      81      82      84    9   14.6528    6.6433         4 ; BB2-BB3-SC1-SC3
   80      81      82      84    9   54.8864    5.6988         5 ; BB2-BB3-SC1-SC3
   80      81      82      84    9   81.3808    3.5712         6 ; BB2-BB3-SC1-SC3
   80      81      82      86    9   36.7771   21.4901         1 ; BB2-BB3-SC1-SC5
   81      80      88      89    9   123.5237   33.6344         1 ; BB3-BB2-BB1n-BB2n
   81      80      88      89    9   -101.9504    4.3183         2 ; BB3-BB2-BB1n-BB2n
   81      80      88      89    9   -157.0745    4.7261         3 ; BB3-BB2-BB1n-BB2n
   81      80      88      89    9   -60.4051    6.1967         4 ; BB3-BB2-BB1n-BB2n
   81      80      88      89    9   39.1643    5.3114         5 ; BB3-BB2-BB1n-BB2n
   81      80      88      89    9   -177.3798    2.4000         6 ; BB3-BB2-BB1n-BB2n
   81      82      84      86    9   18.4453   93.9959         1 ; BB3-SC1-SC3-SC5
   81      82      86      84    9   -157.3612   71.6109         1 ; BB3-SC1-SC5-SC3
   82      81      80      88    9   -8.5063   62.5712         1 ; SC1-BB3-BB2-BB1n
   88      89      90      91    9   112.5838   15.4595         1 ; BB1-BB2-BB3-SC1
   89      90      91      92    9   58.3144   37.2927         1 ; BB2-BB3-SC1-SC2
   89      90      91      94    9   36.5759   34.4515         1 ; BB2-BB3-SC1-SC4
   90      91      92      94    9   14.9873   113.2946         1 ; BB3-SC1-SC2-SC4
   90      91      94      92    9   -161.9439   85.3722         1 ; BB3-SC1-SC4-SC2

[ constraints ]
    3       5    1    0.5552 ; SC1-SC3
    5       7    1    0.3925 ; SC3-SC5
    7       3    1    0.4205 ; SC5-SC1
   12      13    1    0.3143 ; SC1-SC2
   13      15    1    0.3839 ; SC2-SC4
   15      12    1    0.3167 ; SC4-SC1
   19      21    1    0.4745 ; SC1-SC3
   21      22    1    0.3205 ; SC3-SC4
   22      19    1    0.4602 ; SC4-SC1
   27      28    1    0.2370 ; SC1-SC2
   28      30    1    0.3459 ; SC2-SC4
   30      27    1    0.3153 ; SC4-SC1
   35      36    1    0.3143 ; SC1-SC2
   36      38    1    0.3839 ; SC2-SC4
   38      35    1    0.3167 ; SC4-SC1
   42      44    1    0.5552 ; SC1-SC3
   44      46    1    0.3925 ; SC3-SC5
   46      42    1    0.4205 ; SC5-SC1
   50      51    1    0.3143 ; SC1-SC2
   51      53    1    0.3839 ; SC2-SC4
   53      50    1    0.3167 ; SC4-SC1
   57      59    1    0.5552 ; SC1-SC3
   59      61    1    0.3925 ; SC3-SC5
   61      57    1    0.4205 ; SC5-SC1
   66      68    1    0.4745 ; SC1-SC3
   68      69    1    0.3205 ; SC3-SC4
   69      66    1    0.4602 ; SC4-SC1
   74      75    1    0.2370 ; SC1-SC2
   75      77    1    0.3459 ; SC2-SC4
   77      74    1    0.3153 ; SC4-SC1
   82      84    1    0.5552 ; SC1-SC3
   84      86    1    0.3925 ; SC3-SC5
   86      82    1    0.4205 ; SC5-SC1
   91      92    1    0.3143 ; SC1-SC2
   92      94    1    0.3839 ; SC2-SC4
   94      91    1    0.3167 ; SC4-SC1

[ exclusions ]
    2       9       ; BB3-BB1n
    9      11       ; BB1-BB3
   11      16       ; BB3-BB1n
   16      18       ; BB1-BB3
   18      24       ; BB3-BB1n
   24      26       ; BB1-BB3
   26      32       ; BB3-BB1n
   32      34       ; BB1-BB3
   34      39       ; BB3-BB1n
   39      41       ; BB1-BB3
    1       3      
    2       4      
    3       4       5       6       7       8      
    4       5       6       7       8      
    5       6       7       8      
    6       7       8      
    7       8      
   10      12      
   11      13      
   12      13      14      15      
   13      14      15      
   14      15      
   17      19      
   18      20      
   19      20      21      22      23      
   20      21      22      23      
   21      22      23      
   22      23      
   25      27      
   26      28      
   27      28      29      30      31      
   28      29      30      31      
   29      30      31      
   30      31      
   33      35      
   34      36      
   35      36      37      38      
   36      37      38      
   37      38      
   40      42      
   41      43      
   42      43      44      45      46      47      
   43      44      45      46      47      
   44      45      46      47      
   45      46      47      
   46      47      
   49      54       ; BB3-BB1n
   54      56       ; BB1-BB3
   56      63       ; BB3-BB1n
   63      65       ; BB1-BB3
   65      71       ; BB3-BB1n
   71      73       ; BB1-BB3
   73      79       ; BB3-BB1n
   79      81       ; BB1-BB3
   81      88       ; BB3-BB1n
   88      90       ; BB1-BB3
   48      50      
   49      51      
   50      51      52      53      
   51      52      53      
   52      53      
   55      57      
   56      58      
   57      58      59      60      61      62      
   58      59      60      61      62      
   59      60      61      62      
   60      61      62      
   61      62      
   64      66      
   65      67      
   66      67      68      69      70      
   67      68      69      70      
   68      69      70      
   69      70      
   72      74      
   73      75      
   74      75      76      77      78      
   75      76      77      78      
   76      77      78      
   77      78      
   80      82      
   81      83      
   82      83      84      85      86      87      
   83      84      85      86      87      
   84      85      86      87      
   85      86      87      
   86      87      
   89      91      
   90      92      
   91      92      93      94      
   92      93      94      
   93      94      

[ virtual_sites3 ]
    4       3       5       7    3   -4.0000    0.2800 ; SC2
    6       5       7       3    3    0.0000    0.2300 ; SC4
    8       3       7       5    3   -10.0000    0.2000 ; SC6
   14      12      13      15    2    0.4400    0.2100 ; SC3
   20      19      21      22    3   -11.0000    0.2660 ; SC2
   23      19      22      21    3    0.0000    0.1800 ; SC5
   29      27      28      30    2    0.5000    0.2300 ; SC3
   31      27      30      28    3   -50.0000    0.2600 ; SC5
   37      35      36      38    2    0.4400    0.2100 ; SC3
   43      42      44      46    3   -4.0000    0.2800 ; SC2
   45      44      46      42    3    0.0000    0.2300 ; SC4
   47      42      46      44    3   -10.0000    0.2000 ; SC6
   52      50      51      53    2    0.4400    0.2100 ; SC3
   58      57      59      61    3   -4.0000    0.2800 ; SC2
   60      59      61      57    3    0.0000    0.2300 ; SC4
   62      57      61      59    3   -10.0000    0.2000 ; SC6
   67      66      68      69    3   -11.0000    0.2660 ; SC2
   70      66      69      68    3    0.0000    0.1800 ; SC5
   76      74      75      77    2    0.5000    0.2300 ; SC3
   78      74      77      75    3   -50.0000    0.2600 ; SC5
   83      82      84      86    3   -4.0000    0.2800 ; SC2
   85      84      86      82    3    0.0000    0.2300 ; SC4
   87      82      86      84    3   -10.0000    0.2000 ; SC6
   93      91      92      94    2    0.4400    0.2100 ; SC3

#ifdef POSRES
#define POSRES_FC 1000.00
 [ position_restraints ]
      1    1    POSRES_FC    POSRES_FC    POSRES_FC
      2    1    POSRES_FC    POSRES_FC    POSRES_FC
      3    1    POSRES_FC    POSRES_FC    POSRES_FC
      9    1    POSRES_FC    POSRES_FC    POSRES_FC
     10    1    POSRES_FC    POSRES_FC    POSRES_FC
     11    1    POSRES_FC    POSRES_FC    POSRES_FC
     12    1    POSRES_FC    POSRES_FC    POSRES_FC
     16    1    POSRES_FC    POSRES_FC    POSRES_FC
     17    1    POSRES_FC    POSRES_FC    POSRES_FC
     18    1    POSRES_FC    POSRES_FC    POSRES_FC
     19    1    POSRES_FC    POSRES_FC    POSRES_FC
     24    1    POSRES_FC    POSRES_FC    POSRES_FC
     25    1    POSRES_FC    POSRES_FC    POSRES_FC
     26    1    POSRES_FC    POSRES_FC    POSRES_FC
     27    1    POSRES_FC    POSRES_FC    POSRES_FC
     32    1    POSRES_FC    POSRES_FC    POSRES_FC
     33    1    POSRES_FC    POSRES_FC    POSRES_FC
     34    1    POSRES_FC    POSRES_FC    POSRES_FC
     35    1    POSRES_FC    POSRES_FC    POSRES_FC
     39    1    POSRES_FC    POSRES_FC    POSRES_FC
     40    1    POSRES_FC    POSRES_FC    POSRES_FC
     41    1    POSRES_FC    POSRES_FC    POSRES_FC
     42    1    POSRES_FC    POSRES_FC    POSRES_FC
     48    1    POSRES_FC    POSRES_FC    POSRES_FC
     49    1    POSRES_FC    POSRES_FC    POSRES_FC
     50    1    POSRES_FC    POSRES_FC    POSRES_FC
     54    1    POSRES_FC    POSRES_FC    POSRES_FC
     55    1    POSRES_FC    POSRES_FC    POSRES_FC
     56    1    POSRES_FC    POSRES_FC    POSRES_FC
     57    1    POSRES_FC    POSRES_FC    POSRES_FC
     63    1    POSRES_FC    POSRES_FC    POSRES_FC
     64    1    POSRES_FC    POSRES_FC    POSRES_FC
     65    1    POSRES_FC    POSRES_FC    POSRES_FC
     66    1    POSRES_FC    POSRES_FC    POSRES_FC
     71    1    POSRES_FC    POSRES_FC    POSRES_FC
     72    1    POSRES_FC    POSRES_FC    POSRES_FC
     73    1    POSRES_FC    POSRES_FC    POSRES_FC
     74    1    POSRES_FC    POSRES_FC    POSRES_FC
     79    1    POSRES_FC    POSRES_FC    POSRES_FC
     80    1    POSRES_FC    POSRES_FC    POSRES_FC
     81    1    POSRES_FC    POSRES_FC    POSRES_FC
     82    1    POSRES_FC    POSRES_FC    POSRES_FC
     88    1    POSRES_FC    POSRES_FC    POSRES_FC
     89    1    POSRES_FC    POSRES_FC    POSRES_FC
     90    1    POSRES_FC    POSRES_FC    POSRES_FC
     91    1    POSRES_FC    POSRES_FC    POSRES_FC
#endif
