; MARTINI (martini30rna) Coarse Grained topology file for "HAIRPIN26"
; Generated by nucleic_builder Phase 1.5.1
; Input: 6YMC-chain-A.pdb
; Input SHA-256: c4c1181ca5d5056f5b543a672c645ffe52471f6c4866c6ce10aabb2076f550b5
; Upstream: https://github.com/DanYev/Martini-3-DNA-RNA
; Upstream commit: e761b7349fdf61dd485053c000dbb642f24ff9d8
; License: GPL-3.0-only; see distribution LICENSE and nucleic_builder/_vendor/martini_3_dna_rna/NOTICE.md
; Elastic network policy: intrachain
; Elastic bonds: 230; cross-chain elastic bonds: 0
; Chain mapping: A: input 1-26 => residues 1-26
; ####################################################################################################
; Sequence:
; UCUCUGGUUAGGAAACUAACUAGGGA
; Secondary Structure:
; FFFFFFFFFFFFFFFFFFFFFFFFFF

[ moleculetype ]
; Name         Exclusions
HAIRPIN26         1

[ atoms ]
    1    N1     1     U   BB2     1  0.0000 60.0000
    2    N3     1     U   BB3     1  0.0000 60.0000
    3   TU0     1     U   SC1     2  0.0000 37.0000
    4   TU1     1     U   SC2     2  0.0000 37.0000
    5   TU2     1     U   SC3     2  0.0000  0.0000
    6   TU3     1     U   SC4     2  0.0000 37.0000
    7   Q1n     2     C   BB1     8 -1.0000 72.0000
    8    N1     2     C   BB2     8  0.0000 60.0000
    9    N3     2     C   BB3     8  0.0000 60.0000
   10   TY0     2     C   SC1     9  0.0000 37.0000
   11   TY1     2     C   SC2     9  0.0000 37.0000
   12   TY2     2     C   SC3     9  0.0000  0.0000
   13   TY3     2     C   SC4     9  0.0000 37.0000
   14   Q1n     3     U   BB1    15 -1.0000 72.0000
   15    N1     3     U   BB2    15  0.0000 60.0000
   16    N3     3     U   BB3    15  0.0000 60.0000
   17   TU0     3     U   SC1    16  0.0000 37.0000
   18   TU1     3     U   SC2    16  0.0000 37.0000
   19   TU2     3     U   SC3    16  0.0000  0.0000
   20   TU3     3     U   SC4    16  0.0000 37.0000
   21   Q1n     4     C   BB1    22 -1.0000 72.0000
   22    N1     4     C   BB2    22  0.0000 60.0000
   23    N3     4     C   BB3    22  0.0000 60.0000
   24   TY0     4     C   SC1    23  0.0000 37.0000
   25   TY1     4     C   SC2    23  0.0000 37.0000
   26   TY2     4     C   SC3    23  0.0000  0.0000
   27   TY3     4     C   SC4    23  0.0000 37.0000
   28   Q1n     5     U   BB1    29 -1.0000 72.0000
   29    N1     5     U   BB2    29  0.0000 60.0000
   30    N3     5     U   BB3    29  0.0000 60.0000
   31   TU0     5     U   SC1    30  0.0000 37.0000
   32   TU1     5     U   SC2    30  0.0000 37.0000
   33   TU2     5     U   SC3    30  0.0000  0.0000
   34   TU3     5     U   SC4    30  0.0000 37.0000
   35   Q1n     6     G   BB1    36 -1.0000 72.0000
   36    N1     6     G   BB2    36  0.0000 60.0000
   37    N3     6     G   BB3    36  0.0000 60.0000
   38   TG0     6     G   SC1    37  0.0000 50.0000
   39   TG1     6     G   SC2    37  0.0000  0.0000
   40   TG2     6     G   SC3    37  0.0000 50.0000
   41   TG3     6     G   SC4    37  0.0000  0.0000
   42   TG4     6     G   SC5    37  0.0000 50.0000
   43   TG5     6     G   SC6    37  0.0000  0.0000
   44   Q1n     7     G   BB1    45 -1.0000 72.0000
   45    N1     7     G   BB2    45  0.0000 60.0000
   46    N3     7     G   BB3    45  0.0000 60.0000
   47   TG0     7     G   SC1    46  0.0000 50.0000
   48   TG1     7     G   SC2    46  0.0000  0.0000
   49   TG2     7     G   SC3    46  0.0000 50.0000
   50   TG3     7     G   SC4    46  0.0000  0.0000
   51   TG4     7     G   SC5    46  0.0000 50.0000
   52   TG5     7     G   SC6    46  0.0000  0.0000
   53   Q1n     8     U   BB1    54 -1.0000 72.0000
   54    N1     8     U   BB2    54  0.0000 60.0000
   55    N3     8     U   BB3    54  0.0000 60.0000
   56   TU0     8     U   SC1    55  0.0000 37.0000
   57   TU1     8     U   SC2    55  0.0000 37.0000
   58   TU2     8     U   SC3    55  0.0000  0.0000
   59   TU3     8     U   SC4    55  0.0000 37.0000
   60   Q1n     9     U   BB1    61 -1.0000 72.0000
   61    N1     9     U   BB2    61  0.0000 60.0000
   62    N3     9     U   BB3    61  0.0000 60.0000
   63   TU0     9     U   SC1    62  0.0000 37.0000
   64   TU1     9     U   SC2    62  0.0000 37.0000
   65   TU2     9     U   SC3    62  0.0000  0.0000
   66   TU3     9     U   SC4    62  0.0000 37.0000
   67   Q1n    10     A   BB1    68 -1.0000 72.0000
   68    N1    10     A   BB2    68  0.0000 60.0000
   69    N3    10     A   BB3    68  0.0000 60.0000
   70   TA0    10     A   SC1    69  0.0000 45.0000
   71   TA1    10     A   SC2    69  0.0000  0.0000
   72   TA2    10     A   SC3    69  0.0000 45.0000
   73   TA3    10     A   SC4    69  0.0000 45.0000
   74   TA4    10     A   SC5    69  0.0000  0.0000
   75   Q1n    11     G   BB1    76 -1.0000 72.0000
   76    N1    11     G   BB2    76  0.0000 60.0000
   77    N3    11     G   BB3    76  0.0000 60.0000
   78   TG0    11     G   SC1    77  0.0000 50.0000
   79   TG1    11     G   SC2    77  0.0000  0.0000
   80   TG2    11     G   SC3    77  0.0000 50.0000
   81   TG3    11     G   SC4    77  0.0000  0.0000
   82   TG4    11     G   SC5    77  0.0000 50.0000
   83   TG5    11     G   SC6    77  0.0000  0.0000
   84   Q1n    12     G   BB1    85 -1.0000 72.0000
   85    N1    12     G   BB2    85  0.0000 60.0000
   86    N3    12     G   BB3    85  0.0000 60.0000
   87   TG0    12     G   SC1    86  0.0000 50.0000
   88   TG1    12     G   SC2    86  0.0000  0.0000
   89   TG2    12     G   SC3    86  0.0000 50.0000
   90   TG3    12     G   SC4    86  0.0000  0.0000
   91   TG4    12     G   SC5    86  0.0000 50.0000
   92   TG5    12     G   SC6    86  0.0000  0.0000
   93   Q1n    13     A   BB1    94 -1.0000 72.0000
   94    N1    13     A   BB2    94  0.0000 60.0000
   95    N3    13     A   BB3    94  0.0000 60.0000
   96   TA0    13     A   SC1    95  0.0000 45.0000
   97   TA1    13     A   SC2    95  0.0000  0.0000
   98   TA2    13     A   SC3    95  0.0000 45.0000
   99   TA3    13     A   SC4    95  0.0000 45.0000
  100   TA4    13     A   SC5    95  0.0000  0.0000
  101   Q1n    14     A   BB1   102 -1.0000 72.0000
  102    N1    14     A   BB2   102  0.0000 60.0000
  103    N3    14     A   BB3   102  0.0000 60.0000
  104   TA0    14     A   SC1   103  0.0000 45.0000
  105   TA1    14     A   SC2   103  0.0000  0.0000
  106   TA2    14     A   SC3   103  0.0000 45.0000
  107   TA3    14     A   SC4   103  0.0000 45.0000
  108   TA4    14     A   SC5   103  0.0000  0.0000
  109   Q1n    15     A   BB1   110 -1.0000 72.0000
  110    N1    15     A   BB2   110  0.0000 60.0000
  111    N3    15     A   BB3   110  0.0000 60.0000
  112   TA0    15     A   SC1   111  0.0000 45.0000
  113   TA1    15     A   SC2   111  0.0000  0.0000
  114   TA2    15     A   SC3   111  0.0000 45.0000
  115   TA3    15     A   SC4   111  0.0000 45.0000
  116   TA4    15     A   SC5   111  0.0000  0.0000
  117   Q1n    16     C   BB1   118 -1.0000 72.0000
  118    N1    16     C   BB2   118  0.0000 60.0000
  119    N3    16     C   BB3   118  0.0000 60.0000
  120   TY0    16     C   SC1   119  0.0000 37.0000
  121   TY1    16     C   SC2   119  0.0000 37.0000
  122   TY2    16     C   SC3   119  0.0000  0.0000
  123   TY3    16     C   SC4   119  0.0000 37.0000
  124   Q1n    17     U   BB1   125 -1.0000 72.0000
  125    N1    17     U   BB2   125  0.0000 60.0000
  126    N3    17     U   BB3   125  0.0000 60.0000
  127   TU0    17     U   SC1   126  0.0000 37.0000
  128   TU1    17     U   SC2   126  0.0000 37.0000
  129   TU2    17     U   SC3   126  0.0000  0.0000
  130   TU3    17     U   SC4   126  0.0000 37.0000
  131   Q1n    18     A   BB1   132 -1.0000 72.0000
  132    N1    18     A   BB2   132  0.0000 60.0000
  133    N3    18     A   BB3   132  0.0000 60.0000
  134   TA0    18     A   SC1   133  0.0000 45.0000
  135   TA1    18     A   SC2   133  0.0000  0.0000
  136   TA2    18     A   SC3   133  0.0000 45.0000
  137   TA3    18     A   SC4   133  0.0000 45.0000
  138   TA4    18     A   SC5   133  0.0000  0.0000
  139   Q1n    19     A   BB1   140 -1.0000 72.0000
  140    N1    19     A   BB2   140  0.0000 60.0000
  141    N3    19     A   BB3   140  0.0000 60.0000
  142   TA0    19     A   SC1   141  0.0000 45.0000
  143   TA1    19     A   SC2   141  0.0000  0.0000
  144   TA2    19     A   SC3   141  0.0000 45.0000
  145   TA3    19     A   SC4   141  0.0000 45.0000
  146   TA4    19     A   SC5   141  0.0000  0.0000
  147   Q1n    20     C   BB1   148 -1.0000 72.0000
  148    N1    20     C   BB2   148  0.0000 60.0000
  149    N3    20     C   BB3   148  0.0000 60.0000
  150   TY0    20     C   SC1   149  0.0000 37.0000
  151   TY1    20     C   SC2   149  0.0000 37.0000
  152   TY2    20     C   SC3   149  0.0000  0.0000
  153   TY3    20     C   SC4   149  0.0000 37.0000
  154   Q1n    21     U   BB1   155 -1.0000 72.0000
  155    N1    21     U   BB2   155  0.0000 60.0000
  156    N3    21     U   BB3   155  0.0000 60.0000
  157   TU0    21     U   SC1   156  0.0000 37.0000
  158   TU1    21     U   SC2   156  0.0000 37.0000
  159   TU2    21     U   SC3   156  0.0000  0.0000
  160   TU3    21     U   SC4   156  0.0000 37.0000
  161   Q1n    22     A   BB1   162 -1.0000 72.0000
  162    N1    22     A   BB2   162  0.0000 60.0000
  163    N3    22     A   BB3   162  0.0000 60.0000
  164   TA0    22     A   SC1   163  0.0000 45.0000
  165   TA1    22     A   SC2   163  0.0000  0.0000
  166   TA2    22     A   SC3   163  0.0000 45.0000
  167   TA3    22     A   SC4   163  0.0000 45.0000
  168   TA4    22     A   SC5   163  0.0000  0.0000
  169   Q1n    23     G   BB1   170 -1.0000 72.0000
  170    N1    23     G   BB2   170  0.0000 60.0000
  171    N3    23     G   BB3   170  0.0000 60.0000
  172   TG0    23     G   SC1   171  0.0000 50.0000
  173   TG1    23     G   SC2   171  0.0000  0.0000
  174   TG2    23     G   SC3   171  0.0000 50.0000
  175   TG3    23     G   SC4   171  0.0000  0.0000
  176   TG4    23     G   SC5   171  0.0000 50.0000
  177   TG5    23     G   SC6   171  0.0000  0.0000
  178   Q1n    24     G   BB1   179 -1.0000 72.0000
  179    N1    24     G   BB2   179  0.0000 60.0000
  180    N3    24     G   BB3   179  0.0000 60.0000
  181   TG0    24     G   SC1   180  0.0000 50.0000
  182   TG1    24     G   SC2   180  0.0000  0.0000
  183   TG2    24     G   SC3   180  0.0000 50.0000
  184   TG3    24     G   SC4   180  0.0000  0.0000
  185   TG4    24     G   SC5   180  0.0000 50.0000
  186   TG5    24     G   SC6   180  0.0000  0.0000
  187   Q1n    25     G   BB1   188 -1.0000 72.0000
  188    N1    25     G   BB2   188  0.0000 60.0000
  189    N3    25     G   BB3   188  0.0000 60.0000
  190   TG0    25     G   SC1   189  0.0000 50.0000
  191   TG1    25     G   SC2   189  0.0000  0.0000
  192   TG2    25     G   SC3   189  0.0000 50.0000
  193   TG3    25     G   SC4   189  0.0000  0.0000
  194   TG4    25     G   SC5   189  0.0000 50.0000
  195   TG5    25     G   SC6   189  0.0000  0.0000
  196   Q1n    26     A   BB1   197 -1.0000 72.0000
  197    N1    26     A   BB2   197  0.0000 60.0000
  198    N3    26     A   BB3   197  0.0000 60.0000
  199   TA0    26     A   SC1   198  0.0000 45.0000
  200   TA1    26     A   SC2   198  0.0000  0.0000
  201   TA2    26     A   SC3   198  0.0000 45.0000
  202   TA3    26     A   SC4   198  0.0000 45.0000
  203   TA4    26     A   SC5   198  0.0000  0.0000

[ bonds ]
    1       2    1    0.2380   18000.0000 ; BB2-BB3
    1       7    1    0.3750   12000.0000 ; BB2-BB1n
    2       7    1    0.4140   12000.0000 ; BB3-BB1n
    7       8    1    0.3510   18000.0000 ; BB1-BB2
    8       9    1    0.2380   18000.0000 ; BB2-BB3
    8      14    1    0.3750   12000.0000 ; BB2-BB1n
    9      14    1    0.4140   12000.0000 ; BB3-BB1n
   14      15    1    0.3510   18000.0000 ; BB1-BB2
   15      16    1    0.2380   18000.0000 ; BB2-BB3
   15      21    1    0.3750   12000.0000 ; BB2-BB1n
   16      21    1    0.4140   12000.0000 ; BB3-BB1n
   21      22    1    0.3510   18000.0000 ; BB1-BB2
   22      23    1    0.2380   18000.0000 ; BB2-BB3
   22      28    1    0.3750   12000.0000 ; BB2-BB1n
   23      28    1    0.4140   12000.0000 ; BB3-BB1n
   28      29    1    0.3510   18000.0000 ; BB1-BB2
   29      30    1    0.2380   18000.0000 ; BB2-BB3
   29      35    1    0.3750   12000.0000 ; BB2-BB1n
   30      35    1    0.4140   12000.0000 ; BB3-BB1n
   35      36    1    0.3510   18000.0000 ; BB1-BB2
   36      37    1    0.2380   18000.0000 ; BB2-BB3
   36      44    1    0.3750   12000.0000 ; BB2-BB1n
   37      44    1    0.4140   12000.0000 ; BB3-BB1n
   44      45    1    0.3510   18000.0000 ; BB1-BB2
   45      46    1    0.2380   18000.0000 ; BB2-BB3
   45      53    1    0.3750   12000.0000 ; BB2-BB1n
   46      53    1    0.4140   12000.0000 ; BB3-BB1n
   53      54    1    0.3510   18000.0000 ; BB1-BB2
   54      55    1    0.2380   18000.0000 ; BB2-BB3
   54      60    1    0.3750   12000.0000 ; BB2-BB1n
   55      60    1    0.4140   12000.0000 ; BB3-BB1n
   60      61    1    0.3510   18000.0000 ; BB1-BB2
   61      62    1    0.2380   18000.0000 ; BB2-BB3
   61      67    1    0.3750   12000.0000 ; BB2-BB1n
   62      67    1    0.4140   12000.0000 ; BB3-BB1n
   67      68    1    0.3510   18000.0000 ; BB1-BB2
   68      69    1    0.2380   18000.0000 ; BB2-BB3
   68      75    1    0.3750   12000.0000 ; BB2-BB1n
   69      75    1    0.4140   12000.0000 ; BB3-BB1n
   75      76    1    0.3510   18000.0000 ; BB1-BB2
   76      77    1    0.2380   18000.0000 ; BB2-BB3
   76      84    1    0.3750   12000.0000 ; BB2-BB1n
   77      84    1    0.4140   12000.0000 ; BB3-BB1n
   84      85    1    0.3510   18000.0000 ; BB1-BB2
   85      86    1    0.2380   18000.0000 ; BB2-BB3
   85      93    1    0.3750   12000.0000 ; BB2-BB1n
   86      93    1    0.4140   12000.0000 ; BB3-BB1n
   93      94    1    0.3510   18000.0000 ; BB1-BB2
   94      95    1    0.2380   18000.0000 ; BB2-BB3
   94     101    1    0.3750   12000.0000 ; BB2-BB1n
   95     101    1    0.4140   12000.0000 ; BB3-BB1n
  101     102    1    0.3510   18000.0000 ; BB1-BB2
  102     103    1    0.2380   18000.0000 ; BB2-BB3
  102     109    1    0.3750   12000.0000 ; BB2-BB1n
  103     109    1    0.4140   12000.0000 ; BB3-BB1n
  109     110    1    0.3510   18000.0000 ; BB1-BB2
  110     111    1    0.2380   18000.0000 ; BB2-BB3
  110     117    1    0.3750   12000.0000 ; BB2-BB1n
  111     117    1    0.4140   12000.0000 ; BB3-BB1n
  117     118    1    0.3510   18000.0000 ; BB1-BB2
  118     119    1    0.2380   18000.0000 ; BB2-BB3
  118     124    1    0.3750   12000.0000 ; BB2-BB1n
  119     124    1    0.4140   12000.0000 ; BB3-BB1n
  124     125    1    0.3510   18000.0000 ; BB1-BB2
  125     126    1    0.2380   18000.0000 ; BB2-BB3
  125     131    1    0.3750   12000.0000 ; BB2-BB1n
  126     131    1    0.4140   12000.0000 ; BB3-BB1n
  131     132    1    0.3510   18000.0000 ; BB1-BB2
  132     133    1    0.2380   18000.0000 ; BB2-BB3
  132     139    1    0.3750   12000.0000 ; BB2-BB1n
  133     139    1    0.4140   12000.0000 ; BB3-BB1n
  139     140    1    0.3510   18000.0000 ; BB1-BB2
  140     141    1    0.2380   18000.0000 ; BB2-BB3
  140     147    1    0.3750   12000.0000 ; BB2-BB1n
  141     147    1    0.4140   12000.0000 ; BB3-BB1n
  147     148    1    0.3510   18000.0000 ; BB1-BB2
  148     149    1    0.2380   18000.0000 ; BB2-BB3
  148     154    1    0.3750   12000.0000 ; BB2-BB1n
  149     154    1    0.4140   12000.0000 ; BB3-BB1n
  154     155    1    0.3510   18000.0000 ; BB1-BB2
  155     156    1    0.2380   18000.0000 ; BB2-BB3
  155     161    1    0.3750   12000.0000 ; BB2-BB1n
  156     161    1    0.4140   12000.0000 ; BB3-BB1n
  161     162    1    0.3510   18000.0000 ; BB1-BB2
  162     163    1    0.2380   18000.0000 ; BB2-BB3
  162     169    1    0.3750   12000.0000 ; BB2-BB1n
  163     169    1    0.4140   12000.0000 ; BB3-BB1n
  169     170    1    0.3510   18000.0000 ; BB1-BB2
  170     171    1    0.2380   18000.0000 ; BB2-BB3
  170     178    1    0.3750   12000.0000 ; BB2-BB1n
  171     178    1    0.4140   12000.0000 ; BB3-BB1n
  178     179    1    0.3510   18000.0000 ; BB1-BB2
  179     180    1    0.2380   18000.0000 ; BB2-BB3
  179     187    1    0.3750   12000.0000 ; BB2-BB1n
  180     187    1    0.4140   12000.0000 ; BB3-BB1n
  187     188    1    0.3510   18000.0000 ; BB1-BB2
  188     189    1    0.2380   18000.0000 ; BB2-BB3
  188     196    1    0.3750   12000.0000 ; BB2-BB1n
  189     196    1    0.4140   12000.0000 ; BB3-BB1n
  196     197    1    0.3510   18000.0000 ; BB1-BB2
  197     198    1    0.2380   18000.0000 ; BB2-BB3
    2       3    1    0.3250   15000.0000 ; BB3-SC1
    1       3    3    0.4160    4.5000   20.0000 ; BB2-SC1
    2       4    1    0.3240   12000.0000 ; BB3-SC2
    9      10    1    0.3250   15000.0000 ; BB3-SC1
    8      10    3    0.4140    4.4000   22.0000 ; BB2-SC1
    9      11    1    0.3270   12000.0000 ; BB3-SC2
   16      17    1    0.3250   15000.0000 ; BB3-SC1
   15      17    3    0.4160    4.5000   20.0000 ; BB2-SC1
   16      18    1    0.3240   12000.0000 ; BB3-SC2
   23      24    1    0.3250   15000.0000 ; BB3-SC1
   22      24    3    0.4140    4.4000   22.0000 ; BB2-SC1
   23      25    1    0.3270   12000.0000 ; BB3-SC2
   30      31    1    0.3250   15000.0000 ; BB3-SC1
   29      31    3    0.4160    4.5000   20.0000 ; BB2-SC1
   30      32    1    0.3240   12000.0000 ; BB3-SC2
   37      38    1    0.2900   15000.0000 ; BB3-SC1
   36      38    3    0.3500    4.4000   20.0000 ; BB2-SC1
   37      39    1    0.3400   12000.0000 ; BB3-SC2
   46      47    1    0.2900   15000.0000 ; BB3-SC1
   45      47    3    0.3500    4.4000   20.0000 ; BB2-SC1
   46      48    1    0.3400   12000.0000 ; BB3-SC2
   55      56    1    0.3250   15000.0000 ; BB3-SC1
   54      56    3    0.4160    4.5000   20.0000 ; BB2-SC1
   55      57    1    0.3240   12000.0000 ; BB3-SC2
   62      63    1    0.3250   15000.0000 ; BB3-SC1
   61      63    3    0.4160    4.5000   20.0000 ; BB2-SC1
   62      64    1    0.3240   12000.0000 ; BB3-SC2
   69      70    1    0.2920   15000.0000 ; BB3-SC1
   68      70    3    0.3520    4.5000   20.0000 ; BB2-SC1
   69      71    1    0.3280   12000.0000 ; BB3-SC2
   77      78    1    0.2900   15000.0000 ; BB3-SC1
   76      78    3    0.3500    4.4000   20.0000 ; BB2-SC1
   77      79    1    0.3400   12000.0000 ; BB3-SC2
   86      87    1    0.2900   15000.0000 ; BB3-SC1
   85      87    3    0.3500    4.4000   20.0000 ; BB2-SC1
   86      88    1    0.3400   12000.0000 ; BB3-SC2
   95      96    1    0.2920   15000.0000 ; BB3-SC1
   94      96    3    0.3520    4.5000   20.0000 ; BB2-SC1
   95      97    1    0.3280   12000.0000 ; BB3-SC2
  103     104    1    0.2920   15000.0000 ; BB3-SC1
  102     104    3    0.3520    4.5000   20.0000 ; BB2-SC1
  103     105    1    0.3280   12000.0000 ; BB3-SC2
  111     112    1    0.2920   15000.0000 ; BB3-SC1
  110     112    3    0.3520    4.5000   20.0000 ; BB2-SC1
  111     113    1    0.3280   12000.0000 ; BB3-SC2
  119     120    1    0.3250   15000.0000 ; BB3-SC1
  118     120    3    0.4140    4.4000   22.0000 ; BB2-SC1
  119     121    1    0.3270   12000.0000 ; BB3-SC2
  126     127    1    0.3250   15000.0000 ; BB3-SC1
  125     127    3    0.4160    4.5000   20.0000 ; BB2-SC1
  126     128    1    0.3240   12000.0000 ; BB3-SC2
  133     134    1    0.2920   15000.0000 ; BB3-SC1
  132     134    3    0.3520    4.5000   20.0000 ; BB2-SC1
  133     135    1    0.3280   12000.0000 ; BB3-SC2
  141     142    1    0.2920   15000.0000 ; BB3-SC1
  140     142    3    0.3520    4.5000   20.0000 ; BB2-SC1
  141     143    1    0.3280   12000.0000 ; BB3-SC2
  149     150    1    0.3250   15000.0000 ; BB3-SC1
  148     150    3    0.4140    4.4000   22.0000 ; BB2-SC1
  149     151    1    0.3270   12000.0000 ; BB3-SC2
  156     157    1    0.3250   15000.0000 ; BB3-SC1
  155     157    3    0.4160    4.5000   20.0000 ; BB2-SC1
  156     158    1    0.3240   12000.0000 ; BB3-SC2
  163     164    1    0.2920   15000.0000 ; BB3-SC1
  162     164    3    0.3520    4.5000   20.0000 ; BB2-SC1
  163     165    1    0.3280   12000.0000 ; BB3-SC2
  171     172    1    0.2900   15000.0000 ; BB3-SC1
  170     172    3    0.3500    4.4000   20.0000 ; BB2-SC1
  171     173    1    0.3400   12000.0000 ; BB3-SC2
  180     181    1    0.2900   15000.0000 ; BB3-SC1
  179     181    3    0.3500    4.4000   20.0000 ; BB2-SC1
  180     182    1    0.3400   12000.0000 ; BB3-SC2
  189     190    1    0.2900   15000.0000 ; BB3-SC1
  188     190    3    0.3500    4.4000   20.0000 ; BB2-SC1
  189     191    1    0.3400   12000.0000 ; BB3-SC2
  198     199    1    0.2920   15000.0000 ; BB3-SC1
  197     199    3    0.3520    4.5000   20.0000 ; BB2-SC1
  198     200    1    0.3280   12000.0000 ; BB3-SC2

[ angles ]
    1       7       8   10   123.0000   150.0000 ; BB2-BB1n-BB2n
    7       8      14   10   106.0000   50.0000 ; BB1-BB2-BB1n
    8      14      15   10   123.0000   150.0000 ; BB2-BB1n-BB2n
    7       8       9   10   142.0000   300.0000 ; BB1-BB2-BB3
   14      15      21   10   106.0000   50.0000 ; BB1-BB2-BB1n
   15      21      22   10   123.0000   150.0000 ; BB2-BB1n-BB2n
   14      15      16   10   142.0000   300.0000 ; BB1-BB2-BB3
   21      22      28   10   106.0000   50.0000 ; BB1-BB2-BB1n
   22      28      29   10   123.0000   150.0000 ; BB2-BB1n-BB2n
   21      22      23   10   142.0000   300.0000 ; BB1-BB2-BB3
   28      29      35   10   106.0000   50.0000 ; BB1-BB2-BB1n
   29      35      36   10   123.0000   150.0000 ; BB2-BB1n-BB2n
   28      29      30   10   142.0000   300.0000 ; BB1-BB2-BB3
   35      36      44   10   106.0000   50.0000 ; BB1-BB2-BB1n
   36      44      45   10   123.0000   150.0000 ; BB2-BB1n-BB2n
   35      36      37   10   142.0000   300.0000 ; BB1-BB2-BB3
   44      45      53   10   106.0000   50.0000 ; BB1-BB2-BB1n
   45      53      54   10   123.0000   150.0000 ; BB2-BB1n-BB2n
   44      45      46   10   142.0000   300.0000 ; BB1-BB2-BB3
   53      54      60   10   106.0000   50.0000 ; BB1-BB2-BB1n
   54      60      61   10   123.0000   150.0000 ; BB2-BB1n-BB2n
   53      54      55   10   142.0000   300.0000 ; BB1-BB2-BB3
   60      61      67   10   106.0000   50.0000 ; BB1-BB2-BB1n
   61      67      68   10   123.0000   150.0000 ; BB2-BB1n-BB2n
   60      61      62   10   142.0000   300.0000 ; BB1-BB2-BB3
   67      68      75   10   106.0000   50.0000 ; BB1-BB2-BB1n
   68      75      76   10   123.0000   150.0000 ; BB2-BB1n-BB2n
   67      68      69   10   142.0000   300.0000 ; BB1-BB2-BB3
   75      76      84   10   106.0000   50.0000 ; BB1-BB2-BB1n
   76      84      85   10   123.0000   150.0000 ; BB2-BB1n-BB2n
   75      76      77   10   142.0000   300.0000 ; BB1-BB2-BB3
   84      85      93   10   106.0000   50.0000 ; BB1-BB2-BB1n
   85      93      94   10   123.0000   150.0000 ; BB2-BB1n-BB2n
   84      85      86   10   142.0000   300.0000 ; BB1-BB2-BB3
   93      94     101   10   106.0000   50.0000 ; BB1-BB2-BB1n
   94     101     102   10   123.0000   150.0000 ; BB2-BB1n-BB2n
   93      94      95   10   142.0000   300.0000 ; BB1-BB2-BB3
  101     102     109   10   106.0000   50.0000 ; BB1-BB2-BB1n
  102     109     110   10   123.0000   150.0000 ; BB2-BB1n-BB2n
  101     102     103   10   142.0000   300.0000 ; BB1-BB2-BB3
  109     110     117   10   106.0000   50.0000 ; BB1-BB2-BB1n
  110     117     118   10   123.0000   150.0000 ; BB2-BB1n-BB2n
  109     110     111   10   142.0000   300.0000 ; BB1-BB2-BB3
  117     118     124   10   106.0000   50.0000 ; BB1-BB2-BB1n
  118     124     125   10   123.0000   150.0000 ; BB2-BB1n-BB2n
  117     118     119   10   142.0000   300.0000 ; BB1-BB2-BB3
  124     125     131   10   106.0000   50.0000 ; BB1-BB2-BB1n
  125     131     132   10   123.0000   150.0000 ; BB2-BB1n-BB2n
  124     125     126   10   142.0000   300.0000 ; BB1-BB2-BB3
  131     132     139   10   106.0000   50.0000 ; BB1-BB2-BB1n
  132     139     140   10   123.0000   150.0000 ; BB2-BB1n-BB2n
  131     132     133   10   142.0000   300.0000 ; BB1-BB2-BB3
  139     140     147   10   106.0000   50.0000 ; BB1-BB2-BB1n
  140     147     148   10   123.0000   150.0000 ; BB2-BB1n-BB2n
  139     140     141   10   142.0000   300.0000 ; BB1-BB2-BB3
  147     148     154   10   106.0000   50.0000 ; BB1-BB2-BB1n
  148     154     155   10   123.0000   150.0000 ; BB2-BB1n-BB2n
  147     148     149   10   142.0000   300.0000 ; BB1-BB2-BB3
  154     155     161   10   106.0000   50.0000 ; BB1-BB2-BB1n
  155     161     162   10   123.0000   150.0000 ; BB2-BB1n-BB2n
  154     155     156   10   142.0000   300.0000 ; BB1-BB2-BB3
  161     162     169   10   106.0000   50.0000 ; BB1-BB2-BB1n
  162     169     170   10   123.0000   150.0000 ; BB2-BB1n-BB2n
  161     162     163   10   142.0000   300.0000 ; BB1-BB2-BB3
  169     170     178   10   106.0000   50.0000 ; BB1-BB2-BB1n
  170     178     179   10   123.0000   150.0000 ; BB2-BB1n-BB2n
  169     170     171   10   142.0000   300.0000 ; BB1-BB2-BB3
  178     179     187   10   106.0000   50.0000 ; BB1-BB2-BB1n
  179     187     188   10   123.0000   150.0000 ; BB2-BB1n-BB2n
  178     179     180   10   142.0000   300.0000 ; BB1-BB2-BB3
  187     188     196   10   106.0000   50.0000 ; BB1-BB2-BB1n
  188     196     197   10   123.0000   150.0000 ; BB2-BB1n-BB2n
  187     188     189   10   142.0000   300.0000 ; BB1-BB2-BB3
  196     197     198   10   142.0000   300.0000 ; BB1-BB2-BB3
    2       1       7   10   72.0000   80.0000 ; BB3-BB2-BB1n
    1       2       3   10   92.0000   250.0000 ; BB2-BB3-SC1
    2       3       4   10   65.0000   400.0000 ; BB3-SC1-SC2
    2       3       6   10   143.0000   350.0000 ; BB3-SC1-SC4
    9       8      14   10   72.0000   80.0000 ; BB3-BB2-BB1n
    8       9      10   10   92.0000   250.0000 ; BB2-BB3-SC1
    9      10      11   10   68.5000   400.0000 ; BB3-SC1-SC2
    9      10      13   10   142.0000   350.0000 ; BB3-SC1-SC4
   16      15      21   10   72.0000   80.0000 ; BB3-BB2-BB1n
   15      16      17   10   92.0000   250.0000 ; BB2-BB3-SC1
   16      17      18   10   65.0000   400.0000 ; BB3-SC1-SC2
   16      17      20   10   143.0000   350.0000 ; BB3-SC1-SC4
   23      22      28   10   72.0000   80.0000 ; BB3-BB2-BB1n
   22      23      24   10   92.0000   250.0000 ; BB2-BB3-SC1
   23      24      25   10   68.5000   400.0000 ; BB3-SC1-SC2
   23      24      27   10   142.0000   350.0000 ; BB3-SC1-SC4
   30      29      35   10   72.0000   80.0000 ; BB3-BB2-BB1n
   29      30      31   10   92.0000   250.0000 ; BB2-BB3-SC1
   30      31      32   10   65.0000   400.0000 ; BB3-SC1-SC2
   30      31      34   10   143.0000   350.0000 ; BB3-SC1-SC4
   37      36      44   10   72.0000   80.0000 ; BB3-BB2-BB1n
   36      37      38   10   80.0000   250.0000 ; BB2-BB3-SC1
   37      38      40   10   76.0000   300.0000 ; BB3-SC1-SC3
   37      38      42   10   123.0000   250.0000 ; BB3-SC1-SC5
   46      45      53   10   72.0000   80.0000 ; BB3-BB2-BB1n
   45      46      47   10   80.0000   250.0000 ; BB2-BB3-SC1
   46      47      49   10   76.0000   300.0000 ; BB3-SC1-SC3
   46      47      51   10   123.0000   250.0000 ; BB3-SC1-SC5
   55      54      60   10   72.0000   80.0000 ; BB3-BB2-BB1n
   54      55      56   10   92.0000   250.0000 ; BB2-BB3-SC1
   55      56      57   10   65.0000   400.0000 ; BB3-SC1-SC2
   55      56      59   10   143.0000   350.0000 ; BB3-SC1-SC4
   62      61      67   10   72.0000   80.0000 ; BB3-BB2-BB1n
   61      62      63   10   92.0000   250.0000 ; BB2-BB3-SC1
   62      63      64   10   65.0000   400.0000 ; BB3-SC1-SC2
   62      63      66   10   143.0000   350.0000 ; BB3-SC1-SC4
   69      68      75   10   72.0000   80.0000 ; BB3-BB2-BB1n
   68      69      70   10   81.0000   250.0000 ; BB2-BB3-SC1
   69      70      72   10   87.0000   300.0000 ; BB3-SC1-SC3
   69      70      73   10   128.0000   250.0000 ; BB3-SC1-SC4
   77      76      84   10   72.0000   80.0000 ; BB3-BB2-BB1n
   76      77      78   10   80.0000   250.0000 ; BB2-BB3-SC1
   77      78      80   10   76.0000   300.0000 ; BB3-SC1-SC3
   77      78      82   10   123.0000   250.0000 ; BB3-SC1-SC5
   86      85      93   10   72.0000   80.0000 ; BB3-BB2-BB1n
   85      86      87   10   80.0000   250.0000 ; BB2-BB3-SC1
   86      87      89   10   76.0000   300.0000 ; BB3-SC1-SC3
   86      87      91   10   123.0000   250.0000 ; BB3-SC1-SC5
   95      94     101   10   72.0000   80.0000 ; BB3-BB2-BB1n
   94      95      96   10   81.0000   250.0000 ; BB2-BB3-SC1
   95      96      98   10   87.0000   300.0000 ; BB3-SC1-SC3
   95      96      99   10   128.0000   250.0000 ; BB3-SC1-SC4
  103     102     109   10   72.0000   80.0000 ; BB3-BB2-BB1n
  102     103     104   10   81.0000   250.0000 ; BB2-BB3-SC1
  103     104     106   10   87.0000   300.0000 ; BB3-SC1-SC3
  103     104     107   10   128.0000   250.0000 ; BB3-SC1-SC4
  111     110     117   10   72.0000   80.0000 ; BB3-BB2-BB1n
  110     111     112   10   81.0000   250.0000 ; BB2-BB3-SC1
  111     112     114   10   87.0000   300.0000 ; BB3-SC1-SC3
  111     112     115   10   128.0000   250.0000 ; BB3-SC1-SC4
  119     118     124   10   72.0000   80.0000 ; BB3-BB2-BB1n
  118     119     120   10   92.0000   250.0000 ; BB2-BB3-SC1
  119     120     121   10   68.5000   400.0000 ; BB3-SC1-SC2
  119     120     123   10   142.0000   350.0000 ; BB3-SC1-SC4
  126     125     131   10   72.0000   80.0000 ; BB3-BB2-BB1n
  125     126     127   10   92.0000   250.0000 ; BB2-BB3-SC1
  126     127     128   10   65.0000   400.0000 ; BB3-SC1-SC2
  126     127     130   10   143.0000   350.0000 ; BB3-SC1-SC4
  133     132     139   10   72.0000   80.0000 ; BB3-BB2-BB1n
  132     133     134   10   81.0000   250.0000 ; BB2-BB3-SC1
  133     134     136   10   87.0000   300.0000 ; BB3-SC1-SC3
  133     134     137   10   128.0000   250.0000 ; BB3-SC1-SC4
  141     140     147   10   72.0000   80.0000 ; BB3-BB2-BB1n
  140     141     142   10   81.0000   250.0000 ; BB2-BB3-SC1
  141     142     144   10   87.0000   300.0000 ; BB3-SC1-SC3
  141     142     145   10   128.0000   250.0000 ; BB3-SC1-SC4
  149     148     154   10   72.0000   80.0000 ; BB3-BB2-BB1n
  148     149     150   10   92.0000   250.0000 ; BB2-BB3-SC1
  149     150     151   10   68.5000   400.0000 ; BB3-SC1-SC2
  149     150     153   10   142.0000   350.0000 ; BB3-SC1-SC4
  156     155     161   10   72.0000   80.0000 ; BB3-BB2-BB1n
  155     156     157   10   92.0000   250.0000 ; BB2-BB3-SC1
  156     157     158   10   65.0000   400.0000 ; BB3-SC1-SC2
  156     157     160   10   143.0000   350.0000 ; BB3-SC1-SC4
  163     162     169   10   72.0000   80.0000 ; BB3-BB2-BB1n
  162     163     164   10   81.0000   250.0000 ; BB2-BB3-SC1
  163     164     166   10   87.0000   300.0000 ; BB3-SC1-SC3
  163     164     167   10   128.0000   250.0000 ; BB3-SC1-SC4
  171     170     178   10   72.0000   80.0000 ; BB3-BB2-BB1n
  170     171     172   10   80.0000   250.0000 ; BB2-BB3-SC1
  171     172     174   10   76.0000   300.0000 ; BB3-SC1-SC3
  171     172     176   10   123.0000   250.0000 ; BB3-SC1-SC5
  180     179     187   10   72.0000   80.0000 ; BB3-BB2-BB1n
  179     180     181   10   80.0000   250.0000 ; BB2-BB3-SC1
  180     181     183   10   76.0000   300.0000 ; BB3-SC1-SC3
  180     181     185   10   123.0000   250.0000 ; BB3-SC1-SC5
  189     188     196   10   72.0000   80.0000 ; BB3-BB2-BB1n
  188     189     190   10   80.0000   250.0000 ; BB2-BB3-SC1
  189     190     192   10   76.0000   300.0000 ; BB3-SC1-SC3
  189     190     194   10   123.0000   250.0000 ; BB3-SC1-SC5
  197     198     199   10   81.0000   250.0000 ; BB2-BB3-SC1
  198     199     201   10   87.0000   300.0000 ; BB3-SC1-SC3
  198     199     202   10   128.0000   250.0000 ; BB3-SC1-SC4

[ dihedrals ]
    7       8      14      15    3   13.0000   -7.0000   -25.0000   -6.0000   25.0000    2.0000 ; BB1-BB2-BB1n-BB2n
    1       7       8      14    1    0.0000    7.0000    1.0000 ; BB2p-BB1-BB2-BB1n
    1       7       8       9    1   -105.0000   10.0000    1.0000 ; BB2p-BB1-BB2-BB3
   14      15      21      22    3   13.0000   -7.0000   -25.0000   -6.0000   25.0000    2.0000 ; BB1-BB2-BB1n-BB2n
    8      14      15      21    1    0.0000    7.0000    1.0000 ; BB2p-BB1-BB2-BB1n
    8      14      15      16    1   -105.0000   10.0000    1.0000 ; BB2p-BB1-BB2-BB3
   21      22      28      29    3   13.0000   -7.0000   -25.0000   -6.0000   25.0000    2.0000 ; BB1-BB2-BB1n-BB2n
   15      21      22      28    1    0.0000    7.0000    1.0000 ; BB2p-BB1-BB2-BB1n
   15      21      22      23    1   -105.0000   10.0000    1.0000 ; BB2p-BB1-BB2-BB3
   28      29      35      36    3   13.0000   -7.0000   -25.0000   -6.0000   25.0000    2.0000 ; BB1-BB2-BB1n-BB2n
   22      28      29      35    1    0.0000    7.0000    1.0000 ; BB2p-BB1-BB2-BB1n
   22      28      29      30    1   -105.0000   10.0000    1.0000 ; BB2p-BB1-BB2-BB3
   35      36      44      45    3   13.0000   -7.0000   -25.0000   -6.0000   25.0000    2.0000 ; BB1-BB2-BB1n-BB2n
   29      35      36      44    1    0.0000    7.0000    1.0000 ; BB2p-BB1-BB2-BB1n
   29      35      36      37    1   -105.0000   10.0000    1.0000 ; BB2p-BB1-BB2-BB3
   44      45      53      54    3   13.0000   -7.0000   -25.0000   -6.0000   25.0000    2.0000 ; BB1-BB2-BB1n-BB2n
   36      44      45      53    1    0.0000    7.0000    1.0000 ; BB2p-BB1-BB2-BB1n
   36      44      45      46    1   -105.0000   10.0000    1.0000 ; BB2p-BB1-BB2-BB3
   53      54      60      61    3   13.0000   -7.0000   -25.0000   -6.0000   25.0000    2.0000 ; BB1-BB2-BB1n-BB2n
   45      53      54      60    1    0.0000    7.0000    1.0000 ; BB2p-BB1-BB2-BB1n
   45      53      54      55    1   -105.0000   10.0000    1.0000 ; BB2p-BB1-BB2-BB3
   60      61      67      68    3   13.0000   -7.0000   -25.0000   -6.0000   25.0000    2.0000 ; BB1-BB2-BB1n-BB2n
   54      60      61      67    1    0.0000    7.0000    1.0000 ; BB2p-BB1-BB2-BB1n
   54      60      61      62    1   -105.0000   10.0000    1.0000 ; BB2p-BB1-BB2-BB3
   67      68      75      76    3   13.0000   -7.0000   -25.0000   -6.0000   25.0000    2.0000 ; BB1-BB2-BB1n-BB2n
   61      67      68      75    1    0.0000    7.0000    1.0000 ; BB2p-BB1-BB2-BB1n
   61      67      68      69    1   -105.0000   10.0000    1.0000 ; BB2p-BB1-BB2-BB3
   75      76      84      85    3   13.0000   -7.0000   -25.0000   -6.0000   25.0000    2.0000 ; BB1-BB2-BB1n-BB2n
   68      75      76      84    1    0.0000    7.0000    1.0000 ; BB2p-BB1-BB2-BB1n
   68      75      76      77    1   -105.0000   10.0000    1.0000 ; BB2p-BB1-BB2-BB3
   84      85      93      94    3   13.0000   -7.0000   -25.0000   -6.0000   25.0000    2.0000 ; BB1-BB2-BB1n-BB2n
   76      84      85      93    1    0.0000    7.0000    1.0000 ; BB2p-BB1-BB2-BB1n
   76      84      85      86    1   -105.0000   10.0000    1.0000 ; BB2p-BB1-BB2-BB3
   93      94     101     102    3   13.0000   -7.0000   -25.0000   -6.0000   25.0000    2.0000 ; BB1-BB2-BB1n-BB2n
   85      93      94     101    1    0.0000    7.0000    1.0000 ; BB2p-BB1-BB2-BB1n
   85      93      94      95    1   -105.0000   10.0000    1.0000 ; BB2p-BB1-BB2-BB3
  101     102     109     110    3   13.0000   -7.0000   -25.0000   -6.0000   25.0000    2.0000 ; BB1-BB2-BB1n-BB2n
   94     101     102     109    1    0.0000    7.0000    1.0000 ; BB2p-BB1-BB2-BB1n
   94     101     102     103    1   -105.0000   10.0000    1.0000 ; BB2p-BB1-BB2-BB3
  109     110     117     118    3   13.0000   -7.0000   -25.0000   -6.0000   25.0000    2.0000 ; BB1-BB2-BB1n-BB2n
  102     109     110     117    1    0.0000    7.0000    1.0000 ; BB2p-BB1-BB2-BB1n
  102     109     110     111    1   -105.0000   10.0000    1.0000 ; BB2p-BB1-BB2-BB3
  117     118     124     125    3   13.0000   -7.0000   -25.0000   -6.0000   25.0000    2.0000 ; BB1-BB2-BB1n-BB2n
  110     117     118     124    1    0.0000    7.0000    1.0000 ; BB2p-BB1-BB2-BB1n
  110     117     118     119    1   -105.0000   10.0000    1.0000 ; BB2p-BB1-BB2-BB3
  124     125     131     132    3   13.0000   -7.0000   -25.0000   -6.0000   25.0000    2.0000 ; BB1-BB2-BB1n-BB2n
  118     124     125     131    1    0.0000    7.0000    1.0000 ; BB2p-BB1-BB2-BB1n
  118     124     125     126    1   -105.0000   10.0000    1.0000 ; BB2p-BB1-BB2-BB3
  131     132     139     140    3   13.0000   -7.0000   -25.0000   -6.0000   25.0000    2.0000 ; BB1-BB2-BB1n-BB2n
  125     131     132     139    1    0.0000    7.0000    1.0000 ; BB2p-BB1-BB2-BB1n
  125     131     132     133    1   -105.0000   10.0000    1.0000 ; BB2p-BB1-BB2-BB3
  139     140     147     148    3   13.0000   -7.0000   -25.0000   -6.0000   25.0000    2.0000 ; BB1-BB2-BB1n-BB2n
  132     139     140     147    1    0.0000    7.0000    1.0000 ; BB2p-BB1-BB2-BB1n
  132     139     140     141    1   -105.0000   10.0000    1.0000 ; BB2p-BB1-BB2-BB3
  147     148     154     155    3   13.0000   -7.0000   -25.0000   -6.0000   25.0000    2.0000 ; BB1-BB2-BB1n-BB2n
  140     147     148     154    1    0.0000    7.0000    1.0000 ; BB2p-BB1-BB2-BB1n
  140     147     148     149    1   -105.0000   10.0000    1.0000 ; BB2p-BB1-BB2-BB3
  154     155     161     162    3   13.0000   -7.0000   -25.0000   -6.0000   25.0000    2.0000 ; BB1-BB2-BB1n-BB2n
  148     154     155     161    1    0.0000    7.0000    1.0000 ; BB2p-BB1-BB2-BB1n
  148     154     155     156    1   -105.0000   10.0000    1.0000 ; BB2p-BB1-BB2-BB3
  161     162     169     170    3   13.0000   -7.0000   -25.0000   -6.0000   25.0000    2.0000 ; BB1-BB2-BB1n-BB2n
  155     161     162     169    1    0.0000    7.0000    1.0000 ; BB2p-BB1-BB2-BB1n
  155     161     162     163    1   -105.0000   10.0000    1.0000 ; BB2p-BB1-BB2-BB3
  169     170     178     179    3   13.0000   -7.0000   -25.0000   -6.0000   25.0000    2.0000 ; BB1-BB2-BB1n-BB2n
  162     169     170     178    1    0.0000    7.0000    1.0000 ; BB2p-BB1-BB2-BB1n
  162     169     170     171    1   -105.0000   10.0000    1.0000 ; BB2p-BB1-BB2-BB3
  178     179     187     188    3   13.0000   -7.0000   -25.0000   -6.0000   25.0000    2.0000 ; BB1-BB2-BB1n-BB2n
  170     178     179     187    1    0.0000    7.0000    1.0000 ; BB2p-BB1-BB2-BB1n
  170     178     179     180    1   -105.0000   10.0000    1.0000 ; BB2p-BB1-BB2-BB3
  187     188     196     197    3   13.0000   -7.0000   -25.0000   -6.0000   25.0000    2.0000 ; BB1-BB2-BB1n-BB2n
  179     187     188     196    1    0.0000    7.0000    1.0000 ; BB2p-BB1-BB2-BB1n
  179     187     188     189    1   -105.0000   10.0000    1.0000 ; BB2p-BB1-BB2-BB3
  188     196     197     198    1   -105.0000   10.0000    1.0000 ; BB2p-BB1-BB2-BB3
    2       1       7       8    1   170.0000    2.5000    1.0000 ; BB3-BB2-BB1n-BB2n
    3       2       1       7    1   25.0000   12.0000    5.0000 ; SC1-BB3-BB2-BB1n
    7       1       2       3    1   75.0000   30.0000    1.0000 ; SC1-BB3-BB2-BB1n
    1       2       3       4    1    5.0000   60.0000    1.0000 ; BB2-BB3-SC1-SC2
    1       2       3       6    1   -6.0000   50.0000    1.0000 ; BB2-BB3-SC1-SC4
    2       3       4       6    1   15.0000   100.0000    1.0000 ; BB3-SC1-SC2-SC4
    2       3       6       4    1   196.0000   100.0000    1.0000 ; BB3-SC1-SC4-SC2
    9       8      14      15    1   165.0000    2.5000    1.0000 ; BB3-BB2-BB1n-BB2n
   10       9       8      14    1   25.0000   12.0000    5.0000 ; SC1-BB3-BB2-BB1n
   14       8       9      10    1   75.0000   30.0000    1.0000 ; SC1-BB3-BB2-BB1n
    7       8       9      10    1   180.0000   35.0000    1.0000 ; BB1-BB2-BB3-SC1
    8       9      10      11    1    4.0000   60.0000    1.0000 ; BB2-BB3-SC1-SC2
    8       9      10      13    1   -5.0000   40.0000    1.0000 ; BB2-BB3-SC1-SC4
    9      10      11      13    1   14.0000   100.0000    1.0000 ; BB3-SC1-SC2-SC4
    9      10      13      11    1   194.0000   100.0000    1.0000 ; BB3-SC1-SC4-SC2
   16      15      21      22    1   170.0000    2.5000    1.0000 ; BB3-BB2-BB1n-BB2n
   17      16      15      21    1   25.0000   12.0000    5.0000 ; SC1-BB3-BB2-BB1n
   21      15      16      17    1   75.0000   30.0000    1.0000 ; SC1-BB3-BB2-BB1n
   14      15      16      17    1   180.0000   35.0000    1.0000 ; BB1-BB2-BB3-SC1
   15      16      17      18    1    5.0000   60.0000    1.0000 ; BB2-BB3-SC1-SC2
   15      16      17      20    1   -6.0000   50.0000    1.0000 ; BB2-BB3-SC1-SC4
   16      17      18      20    1   15.0000   100.0000    1.0000 ; BB3-SC1-SC2-SC4
   16      17      20      18    1   196.0000   100.0000    1.0000 ; BB3-SC1-SC4-SC2
   23      22      28      29    1   165.0000    2.5000    1.0000 ; BB3-BB2-BB1n-BB2n
   24      23      22      28    1   25.0000   12.0000    5.0000 ; SC1-BB3-BB2-BB1n
   28      22      23      24    1   75.0000   30.0000    1.0000 ; SC1-BB3-BB2-BB1n
   21      22      23      24    1   180.0000   35.0000    1.0000 ; BB1-BB2-BB3-SC1
   22      23      24      25    1    4.0000   60.0000    1.0000 ; BB2-BB3-SC1-SC2
   22      23      24      27    1   -5.0000   40.0000    1.0000 ; BB2-BB3-SC1-SC4
   23      24      25      27    1   14.0000   100.0000    1.0000 ; BB3-SC1-SC2-SC4
   23      24      27      25    1   194.0000   100.0000    1.0000 ; BB3-SC1-SC4-SC2
   30      29      35      36    1   170.0000    2.5000    1.0000 ; BB3-BB2-BB1n-BB2n
   31      30      29      35    1   25.0000   12.0000    5.0000 ; SC1-BB3-BB2-BB1n
   35      29      30      31    1   75.0000   30.0000    1.0000 ; SC1-BB3-BB2-BB1n
   28      29      30      31    1   180.0000   35.0000    1.0000 ; BB1-BB2-BB3-SC1
   29      30      31      32    1    5.0000   60.0000    1.0000 ; BB2-BB3-SC1-SC2
   29      30      31      34    1   -6.0000   50.0000    1.0000 ; BB2-BB3-SC1-SC4
   30      31      32      34    1   15.0000   100.0000    1.0000 ; BB3-SC1-SC2-SC4
   30      31      34      32    1   196.0000   100.0000    1.0000 ; BB3-SC1-SC4-SC2
   37      36      44      45    1   170.0000    2.5000    1.0000 ; BB3-BB2-BB1n-BB2n
   38      37      36      44    1   24.0000   11.0000    5.0000 ; SC1-BB3-BB2-BB1n
   44      36      37      38    1   70.0000   25.0000    1.0000 ; SC1-BB3-BB2-BB1n
   35      36      37      38    1   190.0000   35.0000    1.0000 ; BB1-BB2-BB3-SC1
   36      37      38      40    1   12.0000   40.0000    1.0000 ; BB2-BB3-SC1-SC3
   36      37      38      42    1    0.0000   40.0000    1.0000 ; BB2-BB3-SC1-SC5
   37      38      40      42    1   12.0000   90.0000    1.0000 ; BB3-SC1-SC3-SC5
   37      38      42      40    1   192.0000   90.0000    1.0000 ; BB3-SC1-SC5-SC3
   46      45      53      54    1   170.0000    2.5000    1.0000 ; BB3-BB2-BB1n-BB2n
   47      46      45      53    1   24.0000   11.0000    5.0000 ; SC1-BB3-BB2-BB1n
   53      45      46      47    1   70.0000   25.0000    1.0000 ; SC1-BB3-BB2-BB1n
   44      45      46      47    1   190.0000   35.0000    1.0000 ; BB1-BB2-BB3-SC1
   45      46      47      49    1   12.0000   40.0000    1.0000 ; BB2-BB3-SC1-SC3
   45      46      47      51    1    0.0000   40.0000    1.0000 ; BB2-BB3-SC1-SC5
   46      47      49      51    1   12.0000   90.0000    1.0000 ; BB3-SC1-SC3-SC5
   46      47      51      49    1   192.0000   90.0000    1.0000 ; BB3-SC1-SC5-SC3
   55      54      60      61    1   170.0000    2.5000    1.0000 ; BB3-BB2-BB1n-BB2n
   56      55      54      60    1   25.0000   12.0000    5.0000 ; SC1-BB3-BB2-BB1n
   60      54      55      56    1   75.0000   30.0000    1.0000 ; SC1-BB3-BB2-BB1n
   53      54      55      56    1   180.0000   35.0000    1.0000 ; BB1-BB2-BB3-SC1
   54      55      56      57    1    5.0000   60.0000    1.0000 ; BB2-BB3-SC1-SC2
   54      55      56      59    1   -6.0000   50.0000    1.0000 ; BB2-BB3-SC1-SC4
   55      56      57      59    1   15.0000   100.0000    1.0000 ; BB3-SC1-SC2-SC4
   55      56      59      57    1   196.0000   100.0000    1.0000 ; BB3-SC1-SC4-SC2
   62      61      67      68    1   170.0000    2.5000    1.0000 ; BB3-BB2-BB1n-BB2n
   63      62      61      67    1   25.0000   12.0000    5.0000 ; SC1-BB3-BB2-BB1n
   67      61      62      63    1   75.0000   30.0000    1.0000 ; SC1-BB3-BB2-BB1n
   60      61      62      63    1   180.0000   35.0000    1.0000 ; BB1-BB2-BB3-SC1
   61      62      63      64    1    5.0000   60.0000    1.0000 ; BB2-BB3-SC1-SC2
   61      62      63      66    1   -6.0000   50.0000    1.0000 ; BB2-BB3-SC1-SC4
   62      63      64      66    1   15.0000   100.0000    1.0000 ; BB3-SC1-SC2-SC4
   62      63      66      64    1   196.0000   100.0000    1.0000 ; BB3-SC1-SC4-SC2
   69      68      75      76    1   170.0000    2.5000    1.0000 ; BB3-BB2-BB1n-BB2n
   70      69      68      75    1   24.0000   11.0000    5.0000 ; SC1-BB3-BB2-BB1n
   75      68      69      70    1   70.0000   25.0000    1.0000 ; SC1-BB3-BB2-BB1n
   67      68      69      70    1   184.0000   35.0000    1.0000 ; BB1-BB2-BB3-SC1
   68      69      70      72    1    6.0000   40.0000    1.0000 ; BB2-BB3-SC1-SC3
   68      69      70      73    1   -10.0000   30.0000    1.0000 ; BB2-BB3-SC1-SC4
   69      70      72      73    1   16.0000   90.0000    1.0000 ; BB3-SC1-SC3-SC4
   69      70      73      72    1   196.0000   90.0000    1.0000 ; BB3-SC1-SC4-SC3
   77      76      84      85    1   170.0000    2.5000    1.0000 ; BB3-BB2-BB1n-BB2n
   78      77      76      84    1   24.0000   11.0000    5.0000 ; SC1-BB3-BB2-BB1n
   84      76      77      78    1   70.0000   25.0000    1.0000 ; SC1-BB3-BB2-BB1n
   75      76      77      78    1   190.0000   35.0000    1.0000 ; BB1-BB2-BB3-SC1
   76      77      78      80    1   12.0000   40.0000    1.0000 ; BB2-BB3-SC1-SC3
   76      77      78      82    1    0.0000   40.0000    1.0000 ; BB2-BB3-SC1-SC5
   77      78      80      82    1   12.0000   90.0000    1.0000 ; BB3-SC1-SC3-SC5
   77      78      82      80    1   192.0000   90.0000    1.0000 ; BB3-SC1-SC5-SC3
   86      85      93      94    1   170.0000    2.5000    1.0000 ; BB3-BB2-BB1n-BB2n
   87      86      85      93    1   24.0000   11.0000    5.0000 ; SC1-BB3-BB2-BB1n
   93      85      86      87    1   70.0000   25.0000    1.0000 ; SC1-BB3-BB2-BB1n
   84      85      86      87    1   190.0000   35.0000    1.0000 ; BB1-BB2-BB3-SC1
   85      86      87      89    1   12.0000   40.0000    1.0000 ; BB2-BB3-SC1-SC3
   85      86      87      91    1    0.0000   40.0000    1.0000 ; BB2-BB3-SC1-SC5
   86      87      89      91    1   12.0000   90.0000    1.0000 ; BB3-SC1-SC3-SC5
   86      87      91      89    1   192.0000   90.0000    1.0000 ; BB3-SC1-SC5-SC3
   95      94     101     102    1   170.0000    2.5000    1.0000 ; BB3-BB2-BB1n-BB2n
   96      95      94     101    1   24.0000   11.0000    5.0000 ; SC1-BB3-BB2-BB1n
  101      94      95      96    1   70.0000   25.0000    1.0000 ; SC1-BB3-BB2-BB1n
   93      94      95      96    1   184.0000   35.0000    1.0000 ; BB1-BB2-BB3-SC1
   94      95      96      98    1    6.0000   40.0000    1.0000 ; BB2-BB3-SC1-SC3
   94      95      96      99    1   -10.0000   30.0000    1.0000 ; BB2-BB3-SC1-SC4
   95      96      98      99    1   16.0000   90.0000    1.0000 ; BB3-SC1-SC3-SC4
   95      96      99      98    1   196.0000   90.0000    1.0000 ; BB3-SC1-SC4-SC3
  103     102     109     110    1   170.0000    2.5000    1.0000 ; BB3-BB2-BB1n-BB2n
  104     103     102     109    1   24.0000   11.0000    5.0000 ; SC1-BB3-BB2-BB1n
  109     102     103     104    1   70.0000   25.0000    1.0000 ; SC1-BB3-BB2-BB1n
  101     102     103     104    1   184.0000   35.0000    1.0000 ; BB1-BB2-BB3-SC1
  102     103     104     106    1    6.0000   40.0000    1.0000 ; BB2-BB3-SC1-SC3
  102     103     104     107    1   -10.0000   30.0000    1.0000 ; BB2-BB3-SC1-SC4
  103     104     106     107    1   16.0000   90.0000    1.0000 ; BB3-SC1-SC3-SC4
  103     104     107     106    1   196.0000   90.0000    1.0000 ; BB3-SC1-SC4-SC3
  111     110     117     118    1   170.0000    2.5000    1.0000 ; BB3-BB2-BB1n-BB2n
  112     111     110     117    1   24.0000   11.0000    5.0000 ; SC1-BB3-BB2-BB1n
  117     110     111     112    1   70.0000   25.0000    1.0000 ; SC1-BB3-BB2-BB1n
  109     110     111     112    1   184.0000   35.0000    1.0000 ; BB1-BB2-BB3-SC1
  110     111     112     114    1    6.0000   40.0000    1.0000 ; BB2-BB3-SC1-SC3
  110     111     112     115    1   -10.0000   30.0000    1.0000 ; BB2-BB3-SC1-SC4
  111     112     114     115    1   16.0000   90.0000    1.0000 ; BB3-SC1-SC3-SC4
  111     112     115     114    1   196.0000   90.0000    1.0000 ; BB3-SC1-SC4-SC3
  119     118     124     125    1   165.0000    2.5000    1.0000 ; BB3-BB2-BB1n-BB2n
  120     119     118     124    1   25.0000   12.0000    5.0000 ; SC1-BB3-BB2-BB1n
  124     118     119     120    1   75.0000   30.0000    1.0000 ; SC1-BB3-BB2-BB1n
  117     118     119     120    1   180.0000   35.0000    1.0000 ; BB1-BB2-BB3-SC1
  118     119     120     121    1    4.0000   60.0000    1.0000 ; BB2-BB3-SC1-SC2
  118     119     120     123    1   -5.0000   40.0000    1.0000 ; BB2-BB3-SC1-SC4
  119     120     121     123    1   14.0000   100.0000    1.0000 ; BB3-SC1-SC2-SC4
  119     120     123     121    1   194.0000   100.0000    1.0000 ; BB3-SC1-SC4-SC2
  126     125     131     132    1   170.0000    2.5000    1.0000 ; BB3-BB2-BB1n-BB2n
  127     126     125     131    1   25.0000   12.0000    5.0000 ; SC1-BB3-BB2-BB1n
  131     125     126     127    1   75.0000   30.0000    1.0000 ; SC1-BB3-BB2-BB1n
  124     125     126     127    1   180.0000   35.0000    1.0000 ; BB1-BB2-BB3-SC1
  125     126     127     128    1    5.0000   60.0000    1.0000 ; BB2-BB3-SC1-SC2
  125     126     127     130    1   -6.0000   50.0000    1.0000 ; BB2-BB3-SC1-SC4
  126     127     128     130    1   15.0000   100.0000    1.0000 ; BB3-SC1-SC2-SC4
  126     127     130     128    1   196.0000   100.0000    1.0000 ; BB3-SC1-SC4-SC2
  133     132     139     140    1   170.0000    2.5000    1.0000 ; BB3-BB2-BB1n-BB2n
  134     133     132     139    1   24.0000   11.0000    5.0000 ; SC1-BB3-BB2-BB1n
  139     132     133     134    1   70.0000   25.0000    1.0000 ; SC1-BB3-BB2-BB1n
  131     132     133     134    1   184.0000   35.0000    1.0000 ; BB1-BB2-BB3-SC1
  132     133     134     136    1    6.0000   40.0000    1.0000 ; BB2-BB3-SC1-SC3
  132     133     134     137    1   -10.0000   30.0000    1.0000 ; BB2-BB3-SC1-SC4
  133     134     136     137    1   16.0000   90.0000    1.0000 ; BB3-SC1-SC3-SC4
  133     134     137     136    1   196.0000   90.0000    1.0000 ; BB3-SC1-SC4-SC3
  141     140     147     148    1   170.0000    2.5000    1.0000 ; BB3-BB2-BB1n-BB2n
  142     141     140     147    1   24.0000   11.0000    5.0000 ; SC1-BB3-BB2-BB1n
  147     140     141     142    1   70.0000   25.0000    1.0000 ; SC1-BB3-BB2-BB1n
  139     140     141     142    1   184.0000   35.0000    1.0000 ; BB1-BB2-BB3-SC1
  140     141     142     144    1    6.0000   40.0000    1.0000 ; BB2-BB3-SC1-SC3
  140     141     142     145    1   -10.0000   30.0000    1.0000 ; BB2-BB3-SC1-SC4
  141     142     144     145    1   16.0000   90.0000    1.0000 ; BB3-SC1-SC3-SC4
  141     142     145     144    1   196.0000   90.0000    1.0000 ; BB3-SC1-SC4-SC3
  149     148     154     155    1   165.0000    2.5000    1.0000 ; BB3-BB2-BB1n-BB2n
  150     149     148     154    1   25.0000   12.0000    5.0000 ; SC1-BB3-BB2-BB1n
  154     148     149     150    1   75.0000   30.0000    1.0000 ; SC1-BB3-BB2-BB1n
  147     148     149     150    1   180.0000   35.0000    1.0000 ; BB1-BB2-BB3-SC1
  148     149     150     151    1    4.0000   60.0000    1.0000 ; BB2-BB3-SC1-SC2
  148     149     150     153    1   -5.0000   40.0000    1.0000 ; BB2-BB3-SC1-SC4
  149     150     151     153    1   14.0000   100.0000    1.0000 ; BB3-SC1-SC2-SC4
  149     150     153     151    1   194.0000   100.0000    1.0000 ; BB3-SC1-SC4-SC2
  156     155     161     162    1   170.0000    2.5000    1.0000 ; BB3-BB2-BB1n-BB2n
  157     156     155     161    1   25.0000   12.0000    5.0000 ; SC1-BB3-BB2-BB1n
  161     155     156     157    1   75.0000   30.0000    1.0000 ; SC1-BB3-BB2-BB1n
  154     155     156     157    1   180.0000   35.0000    1.0000 ; BB1-BB2-BB3-SC1
  155     156     157     158    1    5.0000   60.0000    1.0000 ; BB2-BB3-SC1-SC2
  155     156     157     160    1   -6.0000   50.0000    1.0000 ; BB2-BB3-SC1-SC4
  156     157     158     160    1   15.0000   100.0000    1.0000 ; BB3-SC1-SC2-SC4
  156     157     160     158    1   196.0000   100.0000    1.0000 ; BB3-SC1-SC4-SC2
  163     162     169     170    1   170.0000    2.5000    1.0000 ; BB3-BB2-BB1n-BB2n
  164     163     162     169    1   24.0000   11.0000    5.0000 ; SC1-BB3-BB2-BB1n
  169     162     163     164    1   70.0000   25.0000    1.0000 ; SC1-BB3-BB2-BB1n
  161     162     163     164    1   184.0000   35.0000    1.0000 ; BB1-BB2-BB3-SC1
  162     163     164     166    1    6.0000   40.0000    1.0000 ; BB2-BB3-SC1-SC3
  162     163     164     167    1   -10.0000   30.0000    1.0000 ; BB2-BB3-SC1-SC4
  163     164     166     167    1   16.0000   90.0000    1.0000 ; BB3-SC1-SC3-SC4
  163     164     167     166    1   196.0000   90.0000    1.0000 ; BB3-SC1-SC4-SC3
  171     170     178     179    1   170.0000    2.5000    1.0000 ; BB3-BB2-BB1n-BB2n
  172     171     170     178    1   24.0000   11.0000    5.0000 ; SC1-BB3-BB2-BB1n
  178     170     171     172    1   70.0000   25.0000    1.0000 ; SC1-BB3-BB2-BB1n
  169     170     171     172    1   190.0000   35.0000    1.0000 ; BB1-BB2-BB3-SC1
  170     171     172     174    1   12.0000   40.0000    1.0000 ; BB2-BB3-SC1-SC3
  170     171     172     176    1    0.0000   40.0000    1.0000 ; BB2-BB3-SC1-SC5
  171     172     174     176    1   12.0000   90.0000    1.0000 ; BB3-SC1-SC3-SC5
  171     172     176     174    1   192.0000   90.0000    1.0000 ; BB3-SC1-SC5-SC3
  180     179     187     188    1   170.0000    2.5000    1.0000 ; BB3-BB2-BB1n-BB2n
  181     180     179     187    1   24.0000   11.0000    5.0000 ; SC1-BB3-BB2-BB1n
  187     179     180     181    1   70.0000   25.0000    1.0000 ; SC1-BB3-BB2-BB1n
  178     179     180     181    1   190.0000   35.0000    1.0000 ; BB1-BB2-BB3-SC1
  179     180     181     183    1   12.0000   40.0000    1.0000 ; BB2-BB3-SC1-SC3
  179     180     181     185    1    0.0000   40.0000    1.0000 ; BB2-BB3-SC1-SC5
  180     181     183     185    1   12.0000   90.0000    1.0000 ; BB3-SC1-SC3-SC5
  180     181     185     183    1   192.0000   90.0000    1.0000 ; BB3-SC1-SC5-SC3
  189     188     196     197    1   170.0000    2.5000    1.0000 ; BB3-BB2-BB1n-BB2n
  190     189     188     196    1   24.0000   11.0000    5.0000 ; SC1-BB3-BB2-BB1n
  196     188     189     190    1   70.0000   25.0000    1.0000 ; SC1-BB3-BB2-BB1n
  187     188     189     190    1   190.0000   35.0000    1.0000 ; BB1-BB2-BB3-SC1
  188     189     190     192    1   12.0000   40.0000    1.0000 ; BB2-BB3-SC1-SC3
  188     189     190     194    1    0.0000   40.0000    1.0000 ; BB2-BB3-SC1-SC5
  189     190     192     194    1   12.0000   90.0000    1.0000 ; BB3-SC1-SC3-SC5
  189     190     194     192    1   192.0000   90.0000    1.0000 ; BB3-SC1-SC5-SC3
  196     197     198     199    1   184.0000   35.0000    1.0000 ; BB1-BB2-BB3-SC1
  197     198     199     201    1    6.0000   40.0000    1.0000 ; BB2-BB3-SC1-SC3
  197     198     199     202    1   -10.0000   30.0000    1.0000 ; BB2-BB3-SC1-SC4
  198     199     201     202    1   16.0000   90.0000    1.0000 ; BB3-SC1-SC3-SC4
  198     199     202     201    1   196.0000   90.0000    1.0000 ; BB3-SC1-SC4-SC3

[ constraints ]
    3       4    1    0.2600 ; SC1-SC2
    4       6    1    0.3490 ; SC2-SC4
    6       3    1    0.2600 ; SC4-SC1
   10      11    1    0.2580 ; SC1-SC2
   11      13    1    0.3950 ; SC2-SC4
   13      10    1    0.3180 ; SC4-SC1
   17      18    1    0.2600 ; SC1-SC2
   18      20    1    0.3490 ; SC2-SC4
   20      17    1    0.2600 ; SC4-SC1
   24      25    1    0.2580 ; SC1-SC2
   25      27    1    0.3950 ; SC2-SC4
   27      24    1    0.3180 ; SC4-SC1
   31      32    1    0.2600 ; SC1-SC2
   32      34    1    0.3490 ; SC2-SC4
   34      31    1    0.2600 ; SC4-SC1
   38      40    1    0.5550 ; SC1-SC3
   40      42    1    0.3980 ; SC3-SC5
   42      38    1    0.4160 ; SC5-SC1
   47      49    1    0.5550 ; SC1-SC3
   49      51    1    0.3980 ; SC3-SC5
   51      47    1    0.4160 ; SC5-SC1
   56      57    1    0.2600 ; SC1-SC2
   57      59    1    0.3490 ; SC2-SC4
   59      56    1    0.2600 ; SC4-SC1
   63      64    1    0.2600 ; SC1-SC2
   64      66    1    0.3490 ; SC2-SC4
   66      63    1    0.2600 ; SC4-SC1
   70      72    1    0.4700 ; SC1-SC3
   72      73    1    0.3300 ; SC3-SC4
   73      70    1    0.4560 ; SC4-SC1
   78      80    1    0.5550 ; SC1-SC3
   80      82    1    0.3980 ; SC3-SC5
   82      78    1    0.4160 ; SC5-SC1
   87      89    1    0.5550 ; SC1-SC3
   89      91    1    0.3980 ; SC3-SC5
   91      87    1    0.4160 ; SC5-SC1
   96      98    1    0.4700 ; SC1-SC3
   98      99    1    0.3300 ; SC3-SC4
   99      96    1    0.4560 ; SC4-SC1
  104     106    1    0.4700 ; SC1-SC3
  106     107    1    0.3300 ; SC3-SC4
  107     104    1    0.4560 ; SC4-SC1
  112     114    1    0.4700 ; SC1-SC3
  114     115    1    0.3300 ; SC3-SC4
  115     112    1    0.4560 ; SC4-SC1
  120     121    1    0.2580 ; SC1-SC2
  121     123    1    0.3950 ; SC2-SC4
  123     120    1    0.3180 ; SC4-SC1
  127     128    1    0.2600 ; SC1-SC2
  128     130    1    0.3490 ; SC2-SC4
  130     127    1    0.2600 ; SC4-SC1
  134     136    1    0.4700 ; SC1-SC3
  136     137    1    0.3300 ; SC3-SC4
  137     134    1    0.4560 ; SC4-SC1
  142     144    1    0.4700 ; SC1-SC3
  144     145    1    0.3300 ; SC3-SC4
  145     142    1    0.4560 ; SC4-SC1
  150     151    1    0.2580 ; SC1-SC2
  151     153    1    0.3950 ; SC2-SC4
  153     150    1    0.3180 ; SC4-SC1
  157     158    1    0.2600 ; SC1-SC2
  158     160    1    0.3490 ; SC2-SC4
  160     157    1    0.2600 ; SC4-SC1
  164     166    1    0.4700 ; SC1-SC3
  166     167    1    0.3300 ; SC3-SC4
  167     164    1    0.4560 ; SC4-SC1
  172     174    1    0.5550 ; SC1-SC3
  174     176    1    0.3980 ; SC3-SC5
  176     172    1    0.4160 ; SC5-SC1
  181     183    1    0.5550 ; SC1-SC3
  183     185    1    0.3980 ; SC3-SC5
  185     181    1    0.4160 ; SC5-SC1
  190     192    1    0.5550 ; SC1-SC3
  192     194    1    0.3980 ; SC3-SC5
  194     190    1    0.4160 ; SC5-SC1
  199     201    1    0.4700 ; SC1-SC3
  201     202    1    0.3300 ; SC3-SC4
  202     199    1    0.4560 ; SC4-SC1

[ exclusions ]
    2       7       ; BB3-BB1n
    7       9       ; BB1-BB3
    9      14       ; BB3-BB1n
   14      16       ; BB1-BB3
   16      21       ; BB3-BB1n
   21      23       ; BB1-BB3
   23      28       ; BB3-BB1n
   28      30       ; BB1-BB3
   30      35       ; BB3-BB1n
   35      37       ; BB1-BB3
   37      44       ; BB3-BB1n
   44      46       ; BB1-BB3
   46      53       ; BB3-BB1n
   53      55       ; BB1-BB3
   55      60       ; BB3-BB1n
   60      62       ; BB1-BB3
   62      67       ; BB3-BB1n
   67      69       ; BB1-BB3
   69      75       ; BB3-BB1n
   75      77       ; BB1-BB3
   77      84       ; BB3-BB1n
   84      86       ; BB1-BB3
   86      93       ; BB3-BB1n
   93      95       ; BB1-BB3
   95     101       ; BB3-BB1n
  101     103       ; BB1-BB3
  103     109       ; BB3-BB1n
  109     111       ; BB1-BB3
  111     117       ; BB3-BB1n
  117     119       ; BB1-BB3
  119     124       ; BB3-BB1n
  124     126       ; BB1-BB3
  126     131       ; BB3-BB1n
  131     133       ; BB1-BB3
  133     139       ; BB3-BB1n
  139     141       ; BB1-BB3
  141     147       ; BB3-BB1n
  147     149       ; BB1-BB3
  149     154       ; BB3-BB1n
  154     156       ; BB1-BB3
  156     161       ; BB3-BB1n
  161     163       ; BB1-BB3
  163     169       ; BB3-BB1n
  169     171       ; BB1-BB3
  171     178       ; BB3-BB1n
  178     180       ; BB1-BB3
  180     187       ; BB3-BB1n
  187     189       ; BB1-BB3
  189     196       ; BB3-BB1n
  196     198       ; BB1-BB3
    1       3      
    2       4      
    3       4       5       6      
    4       5       6      
    5       6      
    8      10      
    9      11      
   10      11      12      13      
   11      12      13      
   12      13      
   15      17      
   16      18      
   17      18      19      20      
   18      19      20      
   19      20      
   22      24      
   23      25      
   24      25      26      27      
   25      26      27      
   26      27      
   29      31      
   30      32      
   31      32      33      34      
   32      33      34      
   33      34      
   36      38      
   37      39      
   38      39      40      41      42      43      
   39      40      41      42      43      
   40      41      42      43      
   41      42      43      
   42      43      
   45      47      
   46      48      
   47      48      49      50      51      52      
   48      49      50      51      52      
   49      50      51      52      
   50      51      52      
   51      52      
   54      56      
   55      57      
   56      57      58      59      
   57      58      59      
   58      59      
   61      63      
   62      64      
   63      64      65      66      
   64      65      66      
   65      66      
   68      70      
   69      71      
   70      71      72      73      74      
   71      72      73      74      
   72      73      74      
   73      74      
   76      78      
   77      79      
   78      79      80      81      82      83      
   79      80      81      82      83      
   80      81      82      83      
   81      82      83      
   82      83      
   85      87      
   86      88      
   87      88      89      90      91      92      
   88      89      90      91      92      
   89      90      91      92      
   90      91      92      
   91      92      
   94      96      
   95      97      
   96      97      98      99     100      
   97      98      99     100      
   98      99     100      
   99     100      
  102     104      
  103     105      
  104     105     106     107     108      
  105     106     107     108      
  106     107     108      
  107     108      
  110     112      
  111     113      
  112     113     114     115     116      
  113     114     115     116      
  114     115     116      
  115     116      
  118     120      
  119     121      
  120     121     122     123      
  121     122     123      
  122     123      
  125     127      
  126     128      
  127     128     129     130      
  128     129     130      
  129     130      
  132     134      
  133     135      
  134     135     136     137     138      
  135     136     137     138      
  136     137     138      
  137     138      
  140     142      
  141     143      
  142     143     144     145     146      
  143     144     145     146      
  144     145     146      
  145     146      
  148     150      
  149     151      
  150     151     152     153      
  151     152     153      
  152     153      
  155     157      
  156     158      
  157     158     159     160      
  158     159     160      
  159     160      
  162     164      
  163     165      
  164     165     166     167     168      
  165     166     167     168      
  166     167     168      
  167     168      
  170     172      
  171     173      
  172     173     174     175     176     177      
  173     174     175     176     177      
  174     175     176     177      
  175     176     177      
  176     177      
  179     181      
  180     182      
  181     182     183     184     185     186      
  182     183     184     185     186      
  183     184     185     186      
  184     185     186      
  185     186      
  188     190      
  189     191      
  190     191     192     193     194     195      
  191     192     193     194     195      
  192     193     194     195      
  193     194     195      
  194     195      
  197     199      
  198     200      
  199     200     201     202     203      
  200     201     202     203      
  201     202     203      
  202     203      

[ virtual_sites3 ]
    5       3       4       6    2    0.5000    0.2300 ; SC3
   12      10      11      13    2    0.4400    0.2100 ; SC3
   19      17      18      20    2    0.5000    0.2300 ; SC3
   26      24      25      27    2    0.4400    0.2100 ; SC3
   33      31      32      34    2    0.5000    0.2300 ; SC3
   39      38      40      42    3   -4.0000    0.2800 ; SC2
   41      40      42      38    3    0.0000    0.2300 ; SC4
   43      38      42      40    3   -10.0000    0.2000 ; SC6
   48      47      49      51    3   -4.0000    0.2800 ; SC2
   50      49      51      47    3    0.0000    0.2300 ; SC4
   52      47      51      49    3   -10.0000    0.2000 ; SC6
   58      56      57      59    2    0.5000    0.2300 ; SC3
   65      63      64      66    2    0.5000    0.2300 ; SC3
   71      70      72      73    3   -11.0000    0.2660 ; SC2
   74      70      73      72    3    0.0000    0.1800 ; SC5
   79      78      80      82    3   -4.0000    0.2800 ; SC2
   81      80      82      78    3    0.0000    0.2300 ; SC4
   83      78      82      80    3   -10.0000    0.2000 ; SC6
   88      87      89      91    3   -4.0000    0.2800 ; SC2
   90      89      91      87    3    0.0000    0.2300 ; SC4
   92      87      91      89    3   -10.0000    0.2000 ; SC6
   97      96      98      99    3   -11.0000    0.2660 ; SC2
  100      96      99      98    3    0.0000    0.1800 ; SC5
  105     104     106     107    3   -11.0000    0.2660 ; SC2
  108     104     107     106    3    0.0000    0.1800 ; SC5
  113     112     114     115    3   -11.0000    0.2660 ; SC2
  116     112     115     114    3    0.0000    0.1800 ; SC5
  122     120     121     123    2    0.4400    0.2100 ; SC3
  129     127     128     130    2    0.5000    0.2300 ; SC3
  135     134     136     137    3   -11.0000    0.2660 ; SC2
  138     134     137     136    3    0.0000    0.1800 ; SC5
  143     142     144     145    3   -11.0000    0.2660 ; SC2
  146     142     145     144    3    0.0000    0.1800 ; SC5
  152     150     151     153    2    0.4400    0.2100 ; SC3
  159     157     158     160    2    0.5000    0.2300 ; SC3
  165     164     166     167    3   -11.0000    0.2660 ; SC2
  168     164     167     166    3    0.0000    0.1800 ; SC5
  173     172     174     176    3   -4.0000    0.2800 ; SC2
  175     174     176     172    3    0.0000    0.2300 ; SC4
  177     172     176     174    3   -10.0000    0.2000 ; SC6
  182     181     183     185    3   -4.0000    0.2800 ; SC2
  184     183     185     181    3    0.0000    0.2300 ; SC4
  186     181     185     183    3   -10.0000    0.2000 ; SC6
  191     190     192     194    3   -4.0000    0.2800 ; SC2
  193     192     194     190    3    0.0000    0.2300 ; SC4
  195     190     194     192    3   -10.0000    0.2000 ; SC6
  200     199     201     202    3   -11.0000    0.2660 ; SC2
  203     199     202     201    3    0.0000    0.1800 ; SC5

[ bonds ]
    2       7    6    0.4098   200.0000 ; U2-C7
    2       9    6    0.5546   200.0000 ; U2-C9
    2      14    6    0.8428   200.0000 ; U2-U14
    2      16    6    1.1001   200.0000 ; U2-U16
    2     139    6    1.1655   200.0000 ; U2-A139
    2     147    6    1.1554   200.0000 ; U2-C147
    2     198    6    1.1251   200.0000 ; U2-A198
    7      14    6    0.5916   200.0000 ; C7-U14
    7      16    6    0.9831   200.0000 ; C7-U16
    7      21    6    1.1301   200.0000 ; C7-C21
    7     131    6    1.0453   200.0000 ; C7-A131
    7     133    6    1.1919   200.0000 ; C7-A133
    7     139    6    0.7786   200.0000 ; C7-A139
    7     141    6    1.1219   200.0000 ; C7-A141
    7     147    6    0.8814   200.0000 ; C7-C147
    9      14    6    0.4135   200.0000 ; C9-U14
    9      16    6    0.5732   200.0000 ; C9-U16
    9      21    6    0.8443   200.0000 ; C9-C21
    9      23    6    1.1315   200.0000 ; C9-C23
    9     189    6    1.1226   200.0000 ; C9-G189
    9     198    6    0.8031   200.0000 ; C9-A198
   14      21    6    0.5751   200.0000 ; U14-C21
   14      23    6    0.9989   200.0000 ; U14-C23
   14      28    6    1.1224   200.0000 ; U14-U28
   14     124    6    1.1097   200.0000 ; U14-U124
   14     131    6    0.9307   200.0000 ; U14-A131
   14     139    6    0.9790   200.0000 ; U14-A139
   14     198    6    1.1038   200.0000 ; U14-A198
   16      21    6    0.4001   200.0000 ; U16-C21
   16      23    6    0.5786   200.0000 ; U16-C23
   16      28    6    0.8444   200.0000 ; U16-U28
   16      30    6    1.1298   200.0000 ; U16-U30
   16     180    6    1.1264   200.0000 ; U16-G180
   16     189    6    0.8171   200.0000 ; U16-G189
   16     196    6    1.0967   200.0000 ; U16-A196
   16     198    6    0.7783   200.0000 ; U16-A198
   21      28    6    0.5787   200.0000 ; C21-U28
   21      30    6    1.0029   200.0000 ; C21-U30
   21      35    6    1.0923   200.0000 ; C21-G35
   21     124    6    1.0468   200.0000 ; C21-U124
   21     131    6    1.1615   200.0000 ; C21-A131
   21     189    6    1.1271   200.0000 ; C21-G189
   21     198    6    1.1659   200.0000 ; C21-A198
   23      28    6    0.4011   200.0000 ; C23-U28
   23      30    6    0.5974   200.0000 ; C23-U30
   23      35    6    0.8347   200.0000 ; C23-G35
   23      37    6    1.0705   200.0000 ; C23-G37
   23     171    6    1.1449   200.0000 ; C23-G171
   23     180    6    0.8604   200.0000 ; C23-G180
   23     187    6    1.1731   200.0000 ; C23-G187
   23     189    6    0.8329   200.0000 ; C23-G189
   23     198    6    1.1453   200.0000 ; C23-A198
   28      35    6    0.5540   200.0000 ; U28-G35
   28      37    6    0.9400   200.0000 ; U28-G37
   28      44    6    1.1218   200.0000 ; U28-G44
   28     117    6    1.1979   200.0000 ; U28-C117
   28     180    6    1.1849   200.0000 ; U28-G180
   30      35    6    0.4083   200.0000 ; U30-G35
   30      37    6    0.5440   200.0000 ; U30-G37
   30      44    6    0.8779   200.0000 ; U30-G44
   30      46    6    1.1237   200.0000 ; U30-G46
   30     163    6    1.1983   200.0000 ; U30-A163
   30     171    6    0.9367   200.0000 ; U30-G171
   30     180    6    0.9145   200.0000 ; U30-G180
   35      44    6    0.6762   200.0000 ; G35-G44
   35      46    6    1.0905   200.0000 ; G35-G46
   37      44    6    0.4165   200.0000 ; G37-G44
   37      46    6    0.6191   200.0000 ; G37-G46
   37      53    6    0.8712   200.0000 ; G37-U53
   37      55    6    1.1894   200.0000 ; G37-U55
   37     156    6    1.1035   200.0000 ; G37-U156
   37     163    6    1.0000   200.0000 ; G37-A163
   37     171    6    0.9902   200.0000 ; G37-G171
   44      53    6    0.5735   200.0000 ; G44-U53
   44      55    6    1.0002   200.0000 ; G44-U55
   44      60    6    1.1001   200.0000 ; G44-U60
   46      53    6    0.4015   200.0000 ; G46-U53
   46      55    6    0.5995   200.0000 ; G46-U55
   46      60    6    0.8474   200.0000 ; G46-U60
   46      62    6    1.1214   200.0000 ; G46-U62
   46     149    6    1.1183   200.0000 ; G46-C149
   46     156    6    0.7634   200.0000 ; G46-U156
   46     161    6    1.1177   200.0000 ; G46-A161
   46     163    6    0.9272   200.0000 ; G46-A163
   53      60    6    0.5565   200.0000 ; U53-U60
   53      62    6    0.9647   200.0000 ; U53-U62
   53      67    6    1.1070   200.0000 ; U53-A67
   53     156    6    1.0710   200.0000 ; U53-U156
   55      60    6    0.4107   200.0000 ; U55-U60
   55      62    6    0.5543   200.0000 ; U55-U62
   55      67    6    0.8404   200.0000 ; U55-A67
   55      69    6    1.0864   200.0000 ; U55-A69
   55     141    6    1.1603   200.0000 ; U55-A141
   55     149    6    0.8486   200.0000 ; U55-C149
   55     154    6    1.1490   200.0000 ; U55-U154
   55     156    6    0.8106   200.0000 ; U55-U156
   60      67    6    0.5895   200.0000 ; U60-A67
   60      69    6    0.9910   200.0000 ; U60-A69
   60      75    6    1.1357   200.0000 ; U60-G75
   60     149    6    1.1969   200.0000 ; U60-C149
   62      67    6    0.4108   200.0000 ; U62-A67
   62      69    6    0.5706   200.0000 ; U62-A69
   62      75    6    0.8530   200.0000 ; U62-G75
   62      77    6    1.1157   200.0000 ; U62-G77
   62     133    6    1.1562   200.0000 ; U62-A133
   62     141    6    0.9768   200.0000 ; U62-A141
   62     149    6    0.8972   200.0000 ; U62-C149
   62     156    6    1.1724   200.0000 ; U62-U156
   67      75    6    0.5955   200.0000 ; A67-G75
   67      77    6    1.0077   200.0000 ; A67-G77
   67      84    6    1.0971   200.0000 ; A67-G84
   69      75    6    0.4046   200.0000 ; A69-G75
   69      77    6    0.5870   200.0000 ; A69-G77
   69      84    6    0.8297   200.0000 ; A69-G84
   69      86    6    1.0968   200.0000 ; A69-G86
   69     126    6    1.1481   200.0000 ; A69-U126
   69     133    6    0.9285   200.0000 ; A69-A133
   69     141    6    0.9929   200.0000 ; A69-A141
   75      84    6    0.5395   200.0000 ; G75-G84
   75      86    6    0.9435   200.0000 ; G75-G86
   75      93    6    1.0565   200.0000 ; G75-A93
   75     101    6    1.1071   200.0000 ; G75-A101
   77      84    6    0.4151   200.0000 ; G77-G84
   77      86    6    0.5992   200.0000 ; G77-G86
   77      93    6    0.8606   200.0000 ; G77-A93
   77     101    6    1.0189   200.0000 ; G77-A101
   77     119    6    1.1542   200.0000 ; G77-C119
   77     126    6    0.8857   200.0000 ; G77-U126
   77     133    6    0.9287   200.0000 ; G77-A133
   84      93    6    0.5752   200.0000 ; G84-A93
   84      95    6    1.0377   200.0000 ; G84-A95
   84     101    6    0.8718   200.0000 ; G84-A101
   86      93    6    0.4294   200.0000 ; G86-A93
   86      95    6    0.7545   200.0000 ; G86-A95
   86     101    6    0.5902   200.0000 ; G86-A101
   86     103    6    0.8269   200.0000 ; G86-A103
   86     109    6    0.9143   200.0000 ; G86-A109
   86     111    6    1.0546   200.0000 ; G86-A111
   86     119    6    0.8704   200.0000 ; G86-C119
   86     124    6    1.1960   200.0000 ; G86-U124
   86     126    6    0.9303   200.0000 ; G86-U126
   93     101    6    0.6027   200.0000 ; A93-A101
   93     103    6    0.9101   200.0000 ; A93-A103
   93     109    6    1.1156   200.0000 ; A93-A109
   95     101    6    0.4249   200.0000 ; A95-A101
   95     103    6    0.5768   200.0000 ; A95-A103
   95     109    6    0.8695   200.0000 ; A95-A109
   95     111    6    1.0883   200.0000 ; A95-A111
  101     109    6    0.6065   200.0000 ; A101-A109
  101     111    6    0.9710   200.0000 ; A101-A111
  101     117    6    1.1259   200.0000 ; A101-C117
  101     119    6    1.0554   200.0000 ; A101-C119
  103     109    6    0.4059   200.0000 ; A103-A109
  103     111    6    0.5345   200.0000 ; A103-A111
  103     117    6    0.8207   200.0000 ; A103-C117
  103     119    6    0.8692   200.0000 ; A103-C119
  109     117    6    0.5713   200.0000 ; A109-C117
  109     119    6    0.7497   200.0000 ; A109-C119
  109     124    6    1.0485   200.0000 ; A109-U124
  109     126    6    1.1845   200.0000 ; A109-U126
  111     117    6    0.4159   200.0000 ; A111-C117
  111     119    6    0.5634   200.0000 ; A111-C119
  111     124    6    0.8688   200.0000 ; A111-U124
  111     126    6    1.1356   200.0000 ; A111-U126
  117     124    6    0.6564   200.0000 ; C117-U124
  117     126    6    1.0269   200.0000 ; C117-U126
  119     124    6    0.3996   200.0000 ; C119-U124
  119     126    6    0.5781   200.0000 ; C119-U126
  119     131    6    0.8481   200.0000 ; C119-A131
  119     133    6    1.1418   200.0000 ; C119-A133
  124     131    6    0.5788   200.0000 ; U124-A131
  124     133    6    1.0005   200.0000 ; U124-A133
  124     139    6    1.0851   200.0000 ; U124-A139
  126     131    6    0.4069   200.0000 ; U126-A131
  126     133    6    0.5895   200.0000 ; U126-A133
  126     139    6    0.8343   200.0000 ; U126-A139
  126     141    6    1.0900   200.0000 ; U126-A141
  131     139    6    0.5436   200.0000 ; A131-A139
  131     141    6    0.9466   200.0000 ; A131-A141
  131     147    6    1.1139   200.0000 ; A131-C147
  133     139    6    0.4185   200.0000 ; A133-A139
  133     141    6    0.5455   200.0000 ; A133-A141
  133     147    6    0.8552   200.0000 ; A133-C147
  133     149    6    1.0538   200.0000 ; A133-C149
  139     147    6    0.6088   200.0000 ; A139-C147
  139     149    6    0.9764   200.0000 ; A139-C149
  139     154    6    1.1389   200.0000 ; A139-U154
  141     147    6    0.4032   200.0000 ; A141-C147
  141     149    6    0.5560   200.0000 ; A141-C149
  141     154    6    0.8318   200.0000 ; A141-U154
  141     156    6    1.0736   200.0000 ; A141-U156
  147     154    6    0.5741   200.0000 ; C147-U154
  147     156    6    0.9571   200.0000 ; C147-U156
  147     161    6    1.0703   200.0000 ; C147-A161
  149     154    6    0.4122   200.0000 ; C149-U154
  149     156    6    0.5800   200.0000 ; C149-U156
  149     161    6    0.8293   200.0000 ; C149-A161
  149     163    6    1.1930   200.0000 ; C149-A163
  154     161    6    0.5454   200.0000 ; U154-A161
  154     163    6    1.0172   200.0000 ; U154-A163
  154     169    6    1.0859   200.0000 ; U154-G169
  156     161    6    0.4268   200.0000 ; U156-A161
  156     163    6    0.6254   200.0000 ; U156-A163
  156     169    6    0.8801   200.0000 ; U156-G169
  156     171    6    1.0818   200.0000 ; U156-G171
  161     169    6    0.5697   200.0000 ; A161-G169
  161     171    6    0.9489   200.0000 ; A161-G171
  161     178    6    1.1115   200.0000 ; A161-G178
  163     169    6    0.4051   200.0000 ; A163-G169
  163     171    6    0.5515   200.0000 ; A163-G171
  163     178    6    0.8400   200.0000 ; A163-G178
  163     180    6    1.1482   200.0000 ; A163-G180
  169     178    6    0.5893   200.0000 ; G169-G178
  169     180    6    1.0277   200.0000 ; G169-G180
  169     187    6    1.1014   200.0000 ; G169-G187
  171     178    6    0.4094   200.0000 ; G171-G178
  171     180    6    0.6233   200.0000 ; G171-G180
  171     187    6    0.8559   200.0000 ; G171-G187
  171     189    6    1.0971   200.0000 ; G171-G189
  178     187    6    0.5502   200.0000 ; G178-G187
  178     189    6    0.9318   200.0000 ; G178-G189
  178     196    6    1.1230   200.0000 ; G178-A196
  180     187    6    0.4131   200.0000 ; G180-G187
  180     189    6    0.5685   200.0000 ; G180-G189
  180     196    6    0.8778   200.0000 ; G180-A196
  180     198    6    1.1713   200.0000 ; G180-A198
  187     196    6    0.6337   200.0000 ; G187-A196
  187     198    6    1.0599   200.0000 ; G187-A198
  189     196    6    0.4099   200.0000 ; G189-A196
  189     198    6    0.6168   200.0000 ; G189-A198

#ifdef POSRES
#define POSRES_FC 1000.00
 [ position_restraints ]
      1    1    POSRES_FC    POSRES_FC    POSRES_FC
      2    1    POSRES_FC    POSRES_FC    POSRES_FC
      3    1    POSRES_FC    POSRES_FC    POSRES_FC
      7    1    POSRES_FC    POSRES_FC    POSRES_FC
      8    1    POSRES_FC    POSRES_FC    POSRES_FC
      9    1    POSRES_FC    POSRES_FC    POSRES_FC
     10    1    POSRES_FC    POSRES_FC    POSRES_FC
     14    1    POSRES_FC    POSRES_FC    POSRES_FC
     15    1    POSRES_FC    POSRES_FC    POSRES_FC
     16    1    POSRES_FC    POSRES_FC    POSRES_FC
     17    1    POSRES_FC    POSRES_FC    POSRES_FC
     21    1    POSRES_FC    POSRES_FC    POSRES_FC
     22    1    POSRES_FC    POSRES_FC    POSRES_FC
     23    1    POSRES_FC    POSRES_FC    POSRES_FC
     24    1    POSRES_FC    POSRES_FC    POSRES_FC
     28    1    POSRES_FC    POSRES_FC    POSRES_FC
     29    1    POSRES_FC    POSRES_FC    POSRES_FC
     30    1    POSRES_FC    POSRES_FC    POSRES_FC
     31    1    POSRES_FC    POSRES_FC    POSRES_FC
     35    1    POSRES_FC    POSRES_FC    POSRES_FC
     36    1    POSRES_FC    POSRES_FC    POSRES_FC
     37    1    POSRES_FC    POSRES_FC    POSRES_FC
     38    1    POSRES_FC    POSRES_FC    POSRES_FC
     44    1    POSRES_FC    POSRES_FC    POSRES_FC
     45    1    POSRES_FC    POSRES_FC    POSRES_FC
     46    1    POSRES_FC    POSRES_FC    POSRES_FC
     47    1    POSRES_FC    POSRES_FC    POSRES_FC
     53    1    POSRES_FC    POSRES_FC    POSRES_FC
     54    1    POSRES_FC    POSRES_FC    POSRES_FC
     55    1    POSRES_FC    POSRES_FC    POSRES_FC
     56    1    POSRES_FC    POSRES_FC    POSRES_FC
     60    1    POSRES_FC    POSRES_FC    POSRES_FC
     61    1    POSRES_FC    POSRES_FC    POSRES_FC
     62    1    POSRES_FC    POSRES_FC    POSRES_FC
     63    1    POSRES_FC    POSRES_FC    POSRES_FC
     67    1    POSRES_FC    POSRES_FC    POSRES_FC
     68    1    POSRES_FC    POSRES_FC    POSRES_FC
     69    1    POSRES_FC    POSRES_FC    POSRES_FC
     70    1    POSRES_FC    POSRES_FC    POSRES_FC
     75    1    POSRES_FC    POSRES_FC    POSRES_FC
     76    1    POSRES_FC    POSRES_FC    POSRES_FC
     77    1    POSRES_FC    POSRES_FC    POSRES_FC
     78    1    POSRES_FC    POSRES_FC    POSRES_FC
     84    1    POSRES_FC    POSRES_FC    POSRES_FC
     85    1    POSRES_FC    POSRES_FC    POSRES_FC
     86    1    POSRES_FC    POSRES_FC    POSRES_FC
     87    1    POSRES_FC    POSRES_FC    POSRES_FC
     93    1    POSRES_FC    POSRES_FC    POSRES_FC
     94    1    POSRES_FC    POSRES_FC    POSRES_FC
     95    1    POSRES_FC    POSRES_FC    POSRES_FC
     96    1    POSRES_FC    POSRES_FC    POSRES_FC
    101    1    POSRES_FC    POSRES_FC    POSRES_FC
    102    1    POSRES_FC    POSRES_FC    POSRES_FC
    103    1    POSRES_FC    POSRES_FC    POSRES_FC
    104    1    POSRES_FC    POSRES_FC    POSRES_FC
    109    1    POSRES_FC    POSRES_FC    POSRES_FC
    110    1    POSRES_FC    POSRES_FC    POSRES_FC
    111    1    POSRES_FC    POSRES_FC    POSRES_FC
    112    1    POSRES_FC    POSRES_FC    POSRES_FC
    117    1    POSRES_FC    POSRES_FC    POSRES_FC
    118    1    POSRES_FC    POSRES_FC    POSRES_FC
    119    1    POSRES_FC    POSRES_FC    POSRES_FC
    120    1    POSRES_FC    POSRES_FC    POSRES_FC
    124    1    POSRES_FC    POSRES_FC    POSRES_FC
    125    1    POSRES_FC    POSRES_FC    POSRES_FC
    126    1    POSRES_FC    POSRES_FC    POSRES_FC
    127    1    POSRES_FC    POSRES_FC    POSRES_FC
    131    1    POSRES_FC    POSRES_FC    POSRES_FC
    132    1    POSRES_FC    POSRES_FC    POSRES_FC
    133    1    POSRES_FC    POSRES_FC    POSRES_FC
    134    1    POSRES_FC    POSRES_FC    POSRES_FC
    139    1    POSRES_FC    POSRES_FC    POSRES_FC
    140    1    POSRES_FC    POSRES_FC    POSRES_FC
    141    1    POSRES_FC    POSRES_FC    POSRES_FC
    142    1    POSRES_FC    POSRES_FC    POSRES_FC
    147    1    POSRES_FC    POSRES_FC    POSRES_FC
    148    1    POSRES_FC    POSRES_FC    POSRES_FC
    149    1    POSRES_FC    POSRES_FC    POSRES_FC
    150    1    POSRES_FC    POSRES_FC    POSRES_FC
    154    1    POSRES_FC    POSRES_FC    POSRES_FC
    155    1    POSRES_FC    POSRES_FC    POSRES_FC
    156    1    POSRES_FC    POSRES_FC    POSRES_FC
    157    1    POSRES_FC    POSRES_FC    POSRES_FC
    161    1    POSRES_FC    POSRES_FC    POSRES_FC
    162    1    POSRES_FC    POSRES_FC    POSRES_FC
    163    1    POSRES_FC    POSRES_FC    POSRES_FC
    164    1    POSRES_FC    POSRES_FC    POSRES_FC
    169    1    POSRES_FC    POSRES_FC    POSRES_FC
    170    1    POSRES_FC    POSRES_FC    POSRES_FC
    171    1    POSRES_FC    POSRES_FC    POSRES_FC
    172    1    POSRES_FC    POSRES_FC    POSRES_FC
    178    1    POSRES_FC    POSRES_FC    POSRES_FC
    179    1    POSRES_FC    POSRES_FC    POSRES_FC
    180    1    POSRES_FC    POSRES_FC    POSRES_FC
    181    1    POSRES_FC    POSRES_FC    POSRES_FC
    187    1    POSRES_FC    POSRES_FC    POSRES_FC
    188    1    POSRES_FC    POSRES_FC    POSRES_FC
    189    1    POSRES_FC    POSRES_FC    POSRES_FC
    190    1    POSRES_FC    POSRES_FC    POSRES_FC
    196    1    POSRES_FC    POSRES_FC    POSRES_FC
    197    1    POSRES_FC    POSRES_FC    POSRES_FC
    198    1    POSRES_FC    POSRES_FC    POSRES_FC
    199    1    POSRES_FC    POSRES_FC    POSRES_FC
#endif
