HAIRPIN26: Martini 3 RNA; rigidly translated, coordinates in nm
  203
    1U      BB2    1   2.093   2.706   4.405
    1U      BB3    2   2.223   2.848   4.404
    1U      SC1    3   2.427   2.596   4.482
    1U      SC2    4   2.535   2.829   4.435
    1U      SC3    5   2.632   2.682   4.459
    1U      SC4    6   2.678   2.517   4.492
    2C      BB1    7   2.127   2.732   4.023
    2C      BB2    8   2.389   2.979   3.985
    2C      BB3    9   2.567   3.027   4.008
    2C      SC1   10   2.603   2.713   4.119
    2C      SC2   11   2.814   2.858   4.086
    2C      SC3   12   2.832   2.686   4.119
    2C      SC4   13   2.779   2.525   4.161
    3U      BB1   14   2.470   2.979   3.609
    3U      BB2   15   2.818   3.045   3.601
    3U      BB3   16   2.995   2.973   3.631
    3U      SC1   17   2.829   2.724   3.766
    3U      SC2   18   3.089   2.713   3.751
    3U      SC3   19   2.990   2.577   3.809
    3U      SC4   20   2.850   2.478   3.853
    4C      BB1   21   2.911   2.955   3.240
    4C      BB2   22   3.248   2.846   3.237
    4C      BB3   23   3.375   2.710   3.282
    4C      SC1   24   3.116   2.587   3.425
    4C      SC2   25   3.338   2.462   3.466
    4C      SC3   26   3.188   2.395   3.526
    4C      SC4   27   3.017   2.385   3.553
    5U      BB1   28   3.280   2.674   2.894
    5U      BB2   29   3.506   2.389   2.932
    5U      BB3   30   3.538   2.211   2.997
    5U      SC1   31   3.260   2.268   3.162
    5U      SC2   32   3.380   2.042   3.212
    5U      SC3   33   3.218   2.079   3.275
    5U      SC4   34   3.067   2.165   3.306
    6G      BB1   35   3.413   2.218   2.608
    6G      BB2   36   3.296   1.873   2.708
    6G      BB3   37   3.323   1.737   2.839
    6G      SC1   38   3.150   1.905   2.971
    6G      SC2   39   3.112   1.710   3.088
    6G      SC3   40   3.030   1.546   3.216
    6G      SC4   41   2.924   1.686   3.235
    6G      SC5   42   2.853   1.847   3.217
    6G      SC6   43   3.007   1.921   3.071
    7G      BB1   44   3.080   1.637   2.516
    7G      BB2   45   2.984   1.369   2.740
    7G      BB3   46   2.879   1.308   2.883
    7G      SC1   47   2.821   1.572   2.912
    7G      SC2   48   2.663   1.487   3.056
    7G      SC3   49   2.486   1.452   3.193
    7G      SC4   50   2.491   1.623   3.154
    7G      SC5   51   2.536   1.778   3.082
    7G      SC6   52   2.712   1.698   2.964
    8U      BB1   53   2.697   1.210   2.538
    8U      BB2   54   2.456   1.075   2.765
    8U      BB3   55   2.312   1.112   2.884
    8U      SC1   56   2.402   1.427   2.827
    8U      SC2   57   2.197   1.391   2.983
    8U      SC3   58   2.247   1.551   2.930
    8U      SC4   59   2.334   1.678   2.846
    9U      BB1   60   2.183   1.000   2.510
    9U      BB2   61   1.878   1.057   2.697
    9U      BB3   62   1.768   1.176   2.796
    9U      SC1   63   1.994   1.389   2.699
    9U      SC2   64   1.807   1.492   2.851
    9U      SC3   65   1.925   1.590   2.764
    9U      SC4   66   2.063   1.639   2.668
   10A      BB1   67   1.603   1.077   2.433
   10A      BB2   68   1.364   1.315   2.561
   10A      BB3   69   1.332   1.496   2.617
   10A      SC1   70   1.593   1.538   2.560
   10A      SC2   71   1.544   1.758   2.606
   10A      SC3   72   1.642   1.932   2.582
   10A      SC4   73   1.828   1.836   2.482
   10A      SC5   74   1.723   1.641   2.506
   11G      BB1   75   1.169   1.441   2.251
   11G      BB2   76   1.080   1.784   2.313
   11G      BB3   77   1.139   1.964   2.321
   11G      SC1   78   1.383   1.863   2.296
   11G      SC2   79   1.450   2.084   2.301
   11G      SC3   80   1.561   2.280   2.288
   11G      SC4   81   1.671   2.150   2.240
   11G      SC5   82   1.739   1.991   2.205
   11G      SC6   83   1.550   1.877   2.244
   12G      BB1   84   1.000   1.853   1.946
   12G      BB2   85   1.160   2.180   1.865
   12G      BB3   86   1.334   2.279   1.849
   12G      SC1   87   1.434   2.053   1.930
   12G      SC2   88   1.626   2.172   1.890
   12G      SC3   89   1.836   2.240   1.847
   12G      SC4   90   1.835   2.065   1.851
   12G      SC5   91   1.784   1.897   1.872
   12G      SC6   92   1.568   1.944   1.908
   13A      BB1   93   1.137   2.168   1.484
   13A      BB2   94   1.441   2.114   1.274
   13A      BB3   95   1.553   2.186   1.134
   13A      SC1   96   1.434   2.436   1.161
   13A      SC2   97   1.631   2.485   1.053
   13A      SC3   98   1.726   2.652   1.000
   13A      SC4   99   1.564   2.794   1.082
   13A      SC5  100   1.454   2.609   1.145
   14A      BB1  101   1.722   2.021   1.487
   14A      BB2  102   1.965   2.275   1.405
   14A      BB3  103   1.992   2.465   1.384
   14A      SC1  104   1.743   2.473   1.484
   14A      SC2  105   1.730   2.688   1.401
   14A      SC3  106   1.594   2.833   1.408
   14A      SC4  107   1.440   2.711   1.529
   14A      SC5  108   1.588   2.544   1.522
   15A      BB1  109   2.230   2.299   1.668
   15A      BB2  110   2.307   2.647   1.689
   15A      BB3  111   2.227   2.821   1.705
   15A      SC1  112   2.010   2.681   1.759
   15A      SC2  113   1.883   2.865   1.706
   15A      SC3  114   1.690   2.913   1.724
   15A      SC4  115   1.629   2.717   1.827
   15A      SC5  116   1.844   2.657   1.809
   16C      BB1  117   2.458   2.684   2.023
   16C      BB2  118   2.157   2.801   2.183
   16C      BB3  119   1.971   2.756   2.203
   16C      SC1  120   2.076   2.460   2.117
   16C      SC2  121   1.825   2.481   2.182
   16C      SC3  122   1.898   2.323   2.168
   16C      SC4  123   2.021   2.205   2.135
   17U      BB1  124   2.119   2.826   2.567
   17U      BB2  125   1.789   2.734   2.649
   17U      BB3  126   1.659   2.595   2.662
   17U      SC1  127   1.891   2.410   2.526
   17U      SC2  128   1.670   2.290   2.600
   17U      SC3  129   1.812   2.202   2.542
   17U      SC4  130   1.973   2.164   2.485
   18A      BB1  131   1.798   2.695   3.031
   18A      BB2  132   1.558   2.438   3.124
   18A      BB3  133   1.511   2.255   3.120
   18A      SC1  134   1.735   2.229   2.959
   18A      SC2  135   1.672   2.007   2.951
   18A      SC3  136   1.755   1.839   2.884
   18A      SC4  137   1.941   1.942   2.797
   18A      SC5  138   1.856   2.133   2.876
   19A      BB1  139   1.704   2.385   3.468
   19A      BB2  140   1.643   2.051   3.536
   19A      BB3  141   1.663   1.870   3.475
   19A      SC1  142   1.837   1.975   3.301
   19A      SC2  143   1.865   1.761   3.223
   19A      SC3  144   1.998   1.670   3.103
   19A      SC4  145   2.118   1.861   3.058
   19A      SC5  146   1.974   1.967   3.191
   20C      BB1  147   1.855   1.917   3.827
   20C      BB2  148   1.951   1.587   3.726
   20C      BB3  149   2.036   1.476   3.598
   20C      SC1  150   2.121   1.764   3.481
   20C      SC2  151   2.214   1.555   3.363
   20C      SC3  152   2.279   1.713   3.324
   20C      SC4  153   2.299   1.885   3.334
   21U      BB1  154   2.230   1.504   3.961
   21U      BB2  155   2.484   1.361   3.742
   21U      BB3  156   2.606   1.371   3.593
   21U      SC1  157   2.508   1.676   3.592
   21U      SC2  158   2.686   1.610   3.411
   21U      SC3  159   2.641   1.779   3.445
   21U      SC4  160   2.566   1.921   3.520
   22A      BB1  161   2.757   1.364   3.993
   22A      BB2  162   3.074   1.289   3.869
   22A      BB3  163   3.211   1.337   3.748
   22A      SC1  164   3.038   1.529   3.682
   22A      SC2  165   3.193   1.608   3.531
   22A      SC3  166   3.212   1.776   3.424
   22A      SC4  167   3.021   1.874   3.508
   22A      SC5  168   2.993   1.689   3.626
   23G      BB1  169   3.303   1.458   4.123
   23G      BB2  170   3.567   1.585   3.919
   23G      BB3  171   3.615   1.710   3.784
   23G      SC1  172   3.352   1.782   3.806
   23G      SC2  173   3.419   1.950   3.664
   23G      SC3  174   3.442   2.133   3.538
   23G      SC4  175   3.285   2.143   3.622
   23G      SC5  176   3.144   2.100   3.722
   23G      SC6  177   3.231   1.907   3.799
   24G      BB1  178   3.746   1.846   4.148
   24G      BB2  179   3.876   2.122   3.947
   24G      BB3  180   3.856   2.280   3.852
   24G      SC1  181   3.589   2.216   3.871
   24G      SC2  182   3.560   2.426   3.778
   24G      SC3  183   3.481   2.625   3.706
   24G      SC4  184   3.349   2.538   3.781
   24G      SC5  185   3.253   2.413   3.857
   24G      SC6  186   3.423   2.269   3.889
   25G      BB1  187   3.932   2.354   4.251
   25G      BB2  188   3.805   2.672   4.135
   25G      BB3  189   3.659   2.770   4.063
   25G      SC1  190   3.498   2.556   4.118
   25G      SC2  191   3.337   2.715   4.079
   25G      SC3  192   3.147   2.832   4.058
   25G      SC4  193   3.106   2.671   4.120
   25G      SC5  194   3.119   2.505   4.181
   25G      SC6  195   3.341   2.495   4.163
   26A      BB1  196   3.748   2.934   4.428
   26A      BB2  197   3.480   3.164   4.326
   26A      BB3  198   3.290   3.194   4.316
   26A      SC1  199   3.278   2.923   4.372
   26A      SC2  200   3.052   2.967   4.372
   26A      SC3  201   2.888   2.864   4.413
   26A      SC4  202   2.999   2.668   4.465
   26A      SC5  203   3.187   2.781   4.421
   4.93190   4.19430   5.49220
